Program Version,EnergyPlus, Version 23.2.0-7636e6b3e9, YMD=2025.07.28 01:32
1,5,Environment Title[],Latitude[deg],Longitude[deg],Time Zone[],Elevation[m]
2,8,Day of Simulation[],Month[],Day of Month[],DST Indicator[1=yes 0=no],Hour[],StartMinute[],EndMinute[],DayType
3,5,Cumulative Day of Simulation[],Month[],Day of Month[],DST Indicator[1=yes 0=no],DayType  ! When Daily Meters Requested
4,2,Cumulative Days of Simulation[],Month[]  ! When Monthly Meters Requested
5,1,Cumulative Days of Simulation[] ! When Run Period Meters Requested
6,1,Calendar Year of Simulation[] ! When Annual Meters Requested
24,1,Electricity:Facility [J] !TimeStep
36,1,Electricity:Building [J] !TimeStep
72,1,InteriorLights:Electricity [J] !TimeStep
1207,1,Electricity:HVAC [J] !TimeStep
1270,1,Electricity:Plant [J] !TimeStep
29,11,Electricity:Facility [J] !RunPeriod [Value,Min,Month,Day,Hour,Minute,Max,Month,Day,Hour,Minute]
41,11,Electricity:Building [J] !RunPeriod [Value,Min,Month,Day,Hour,Minute,Max,Month,Day,Hour,Minute]
77,11,InteriorLights:Electricity [J] !RunPeriod [Value,Min,Month,Day,Hour,Minute,Max,Month,Day,Hour,Minute]
1212,11,Electricity:HVAC [J] !RunPeriod [Value,Min,Month,Day,Hour,Minute,Max,Month,Day,Hour,Minute]
1275,11,Electricity:Plant [J] !RunPeriod [Value,Min,Month,Day,Hour,Minute,Max,Month,Day,Hour,Minute]
End of Data Dictionary
1,RUN PERIOD 2,  36.60, 117.05,   8.00, 170.30
2,1, 6, 1, 0, 1, 0.00,15.00,Wednesday
24,4708473.766012155
36,427500.0
72,337500.0
1207,589606.758008379
1270,3691367.0080037764
2,1, 6, 1, 0, 1,15.00,30.00,Wednesday
24,4702707.17763121
36,427500.0
72,337500.0
1207,589606.758008379
1270,3685600.4196228306
2,1, 6, 1, 0, 1,30.00,45.00,Wednesday
24,4701017.975624118
36,427500.0
72,337500.0
1207,593185.2295209606
1270,3680332.7461031578
2,1, 6, 1, 0, 1,45.00,60.00,Wednesday
24,4704832.307715495
36,427500.0
72,337500.0
1207,601828.8276328386
1270,3675503.4800826567
2,1, 6, 1, 0, 2, 0.00,15.00,Wednesday
24,4706686.771949326
36,427500.0
72,337500.0
1207,603139.8920792174
1270,3676046.8798701083
2,1, 6, 1, 0, 2,15.00,30.00,Wednesday
24,4695885.323099916
36,427500.0
72,337500.0
1207,591810.9639975099
1270,3676574.3591024056
2,1, 6, 1, 0, 2,30.00,45.00,Wednesday
24,4702921.984111844
36,427500.0
72,337500.0
1207,598337.1576004798
1270,3677084.826511364
2,1, 6, 1, 0, 2,45.00,60.00,Wednesday
24,4698303.881498585
36,427500.0
72,337500.0
1207,593226.6326110249
1270,3677577.248887561
2,1, 6, 1, 0, 3, 0.00,15.00,Wednesday
24,4699238.384784314
36,427500.0
72,337500.0
1207,593895.6386019192
1270,3677842.7461823947
2,1, 6, 1, 0, 3,15.00,30.00,Wednesday
24,4695193.934784756
36,427500.0
72,337500.0
1207,589606.758008379
1270,3678087.1767763766
2,1, 6, 1, 0, 3,30.00,45.00,Wednesday
24,4695416.458074376
36,427500.0
72,337500.0
1207,589606.758008379
1270,3678309.700065998
2,1, 6, 1, 0, 3,45.00,60.00,Wednesday
24,4695616.486345331
36,427500.0
72,337500.0
1207,589606.758008379
1270,3678509.728336952
2,1, 6, 1, 0, 4, 0.00,15.00,Wednesday
24,4695133.3762987545
36,427500.0
72,337500.0
1207,589606.758008379
1270,3678026.6182903755
2,1, 6, 1, 0, 4,15.00,30.00,Wednesday
24,4694646.204719883
36,427500.0
72,337500.0
1207,589606.758008379
1270,3677539.4467115053
2,1, 6, 1, 0, 4,30.00,45.00,Wednesday
24,4694154.991248866
36,427500.0
72,337500.0
1207,589606.758008379
1270,3677048.2332404866
2,1, 6, 1, 0, 4,45.00,60.00,Wednesday
24,4693659.806504118
36,427500.0
72,337500.0
1207,589606.758008379
1270,3676553.0484957392
2,1, 6, 1, 0, 5, 0.00,15.00,Wednesday
24,4692940.423711312
36,427500.0
72,337500.0
1207,589606.758008379
1270,3675833.665702933
2,1, 6, 1, 0, 5,15.00,30.00,Wednesday
24,4692229.941472088
36,427500.0
72,337500.0
1207,589606.758008379
1270,3675123.183463709
2,1, 6, 1, 0, 5,30.00,45.00,Wednesday
24,4691528.173137314
36,427500.0
72,337500.0
1207,589606.758008379
1270,3674421.4151289347
2,1, 6, 1, 0, 5,45.00,60.00,Wednesday
24,4690834.956489093
36,427500.0
72,337500.0
1207,589606.758008379
1270,3673728.1984807136
2,1, 6, 1, 0, 6, 0.00,15.00,Wednesday
24,4689970.893548511
36,427500.0
72,337500.0
1207,589606.758008379
1270,3672864.135540132
2,1, 6, 1, 0, 6,15.00,30.00,Wednesday
24,4689117.937258786
36,427500.0
72,337500.0
1207,589606.758008379
1270,3672011.1792504075
2,1, 6, 1, 0, 6,30.00,45.00,Wednesday
24,4688283.850149606
36,427500.0
72,337500.0
1207,589606.758008379
1270,3671177.0921412283
2,1, 6, 1, 0, 6,45.00,60.00,Wednesday
24,4687464.126085793
36,427500.0
72,337500.0
1207,589606.758008379
1270,3670357.3680774136
2,1, 6, 1, 0, 7, 0.00,15.00,Wednesday
24,4687632.232722467
36,427500.0
72,337500.0
1207,589606.758008379
1270,3670525.4747140887
2,1, 6, 1, 0, 7,15.00,30.00,Wednesday
24,4687800.984636138
36,427500.0
72,337500.0
1207,589606.758008379
1270,3670694.22662776
2,1, 6, 1, 0, 7,30.00,45.00,Wednesday
24,4687970.374514963
36,427500.0
72,337500.0
1207,589606.758008379
1270,3670863.6165065845
2,1, 6, 1, 0, 7,45.00,60.00,Wednesday
24,4688140.429642734
36,427500.0
72,337500.0
1207,589606.758008379
1270,3671033.671634355
2,1, 6, 1, 0, 8, 0.00,15.00,Wednesday
24,4688988.353931832
36,427500.0
72,337500.0
1207,589606.758008379
1270,3671881.595923454
2,1, 6, 1, 0, 8,15.00,30.00,Wednesday
24,4689857.639542158
36,427500.0
72,337500.0
1207,589606.758008379
1270,3672750.8815337797
2,1, 6, 1, 0, 8,30.00,45.00,Wednesday
24,4690740.601015273
36,427500.0
72,337500.0
1207,589606.758008379
1270,3673633.8430068945
2,1, 6, 1, 0, 8,45.00,60.00,Wednesday
24,4691641.977912662
36,427500.0
72,337500.0
1207,589606.758008379
1270,3674535.2199042826
2,1, 6, 1, 0, 9, 0.00,15.00,Wednesday
24,12948790.505047332
36,7875000.0
72,6075000.0
1207,597855.4879097447
1270,4475935.017137587
2,1, 6, 1, 0, 9,15.00,30.00,Wednesday
24,12143377.77354729
36,7875000.0
72,6075000.0
1207,589606.758008379
1270,3678771.015538908
2,1, 6, 1, 0, 9,30.00,45.00,Wednesday
24,12145651.262339052
36,7875000.0
72,6075000.0
1207,589606.758008379
1270,3681044.504330671
2,1, 6, 1, 0, 9,45.00,60.00,Wednesday
24,12148038.790120333
36,7875000.0
72,6075000.0
1207,589606.758008379
1270,3683432.032111952
2,1, 6, 1, 0,10, 0.00,15.00,Wednesday
24,14741726.153850164
36,10462500.0
72,6412500.0
1207,591854.7258419658
1270,3687371.4280081983
2,1, 6, 1, 0,10,15.00,30.00,Wednesday
24,14747069.922791284
36,10462500.0
72,6412500.0
1207,592932.9656759376
1270,3691636.957115347
2,1, 6, 1, 0,10,30.00,45.00,Wednesday
24,14752814.117244875
36,10462500.0
72,6412500.0
1207,594044.1415509045
1270,3696269.975693971
2,1, 6, 1, 0,10,45.00,60.00,Wednesday
24,15490131.681380942
36,10462500.0
72,6412500.0
1207,617900.373831756
1270,4409731.307549185
2,1, 6, 1, 0,11, 0.00,15.00,Wednesday
24,15478424.019179137
36,10800000.0
72,6750000.0
1207,602362.8268276528
1270,4076061.192351484
2,1, 6, 1, 0,11,15.00,30.00,Wednesday
24,16898725.783341285
36,10800000.0
72,6750000.0
1207,643616.2718946199
1270,5455109.511446666
2,1, 6, 1, 0,11,30.00,45.00,Wednesday
24,15901331.554945005
36,10800000.0
72,6750000.0
1207,602699.0229469435
1270,4498632.531998059
2,1, 6, 1, 0,11,45.00,60.00,Wednesday
24,17678657.847620886
36,10800000.0
72,6750000.0
1207,655036.0841284553
1270,6223621.763492426
2,1, 6, 1, 0,12, 0.00,15.00,Wednesday
24,15734753.816380462
36,10462500.0
72,6412500.0
1207,602060.361303953
1270,4670193.455076507
2,1, 6, 1, 0,12,15.00,30.00,Wednesday
24,19100523.040618572
36,10462500.0
72,6412500.0
1207,799150.8232188111
1270,7838872.217399761
2,1, 6, 1, 0,12,30.00,45.00,Wednesday
24,15014257.486962477
36,10462500.0
72,6412500.0
1207,592021.1604343664
1270,3959736.32652811
2,1, 6, 1, 0,12,45.00,60.00,Wednesday
24,19269690.536344104
36,10462500.0
72,6412500.0
1207,840733.7683875342
1270,7966456.767956567
2,1, 6, 1, 0,13, 0.00,15.00,Wednesday
24,14096930.545572815
36,9450000.0
72,5400000.0
1207,591276.2697030781
1270,4055654.2758697355
2,1, 6, 1, 0,13,15.00,30.00,Wednesday
24,17035584.190078903
36,9450000.0
72,5400000.0
1207,743238.9363146431
1270,6842345.253764261
2,1, 6, 1, 0,13,30.00,45.00,Wednesday
24,14049145.013605932
36,9450000.0
72,5400000.0
1207,591972.1075086154
1270,4007172.906097317
2,1, 6, 1, 0,13,45.00,60.00,Wednesday
24,16565231.966611026
36,9450000.0
72,5400000.0
1207,722856.5213242575
1270,6392375.445286768
2,1, 6, 1, 0,14, 0.00,15.00,Wednesday
24,14765638.351875145
36,10125000.0
72,6075000.0
1207,592935.5137271604
1270,4047702.838147986
2,1, 6, 1, 0,14,15.00,30.00,Wednesday
24,17466372.164877165
36,10125000.0
72,6075000.0
1207,730067.1844719439
1270,6611304.980405217
2,1, 6, 1, 0,14,30.00,45.00,Wednesday
24,14506443.09764613
36,10125000.0
72,6075000.0
1207,591523.2473352142
1270,3789919.850310915
2,1, 6, 1, 0,14,45.00,60.00,Wednesday
24,16876376.588412188
36,10125000.0
72,6075000.0
1207,747339.2662385993
1270,6004037.322173588
2,1, 6, 1, 0,15, 0.00,15.00,Wednesday
24,14720350.081373755
36,10350000.0
72,6750000.0
1207,591888.8657719557
1270,3778461.215601797
2,1, 6, 1, 0,15,15.00,30.00,Wednesday
24,16834945.161885247
36,10350000.0
72,6750000.0
1207,706397.4605664044
1270,5778547.701318842
2,1, 6, 1, 0,15,30.00,45.00,Wednesday
24,14650161.47119532
36,10350000.0
72,6750000.0
1207,594970.7961560029
1270,3705190.675039317
2,1, 6, 1, 0,15,45.00,60.00,Wednesday
24,16535989.417602802
36,10350000.0
72,6750000.0
1207,681558.2233151563
1270,5504431.194287645
2,1, 6, 1, 0,16, 0.00,15.00,Wednesday
24,14191031.811760703
36,9900000.0
72,6750000.0
1207,594826.6800281757
1270,3696205.131732527
2,1, 6, 1, 0,16,15.00,30.00,Wednesday
24,15594137.68696329
36,9900000.0
72,6750000.0
1207,668674.9665748733
1270,5025462.720388414
2,1, 6, 1, 0,16,30.00,45.00,Wednesday
24,14184327.953841265
36,9900000.0
72,6750000.0
1207,595581.439521112
1270,3688746.5143201533
2,1, 6, 1, 0,16,45.00,60.00,Wednesday
24,14766644.921697356
36,9900000.0
72,6750000.0
1207,620484.7564828574
1270,4246160.165214498
2,1, 6, 1, 0,17, 0.00,15.00,Wednesday
24,13276898.808190249
36,9000000.0
72,6750000.0
1207,593783.4125094516
1270,3683115.395680796
2,1, 6, 1, 0,17,15.00,30.00,Wednesday
24,13455164.03081958
36,9000000.0
72,6750000.0
1207,604859.9162240529
1270,3850304.1145955264
2,1, 6, 1, 0,17,30.00,45.00,Wednesday
24,13274941.736484336
36,9000000.0
72,6750000.0
1207,594538.7000903854
1270,3680403.0363939484
2,1, 6, 1, 0,17,45.00,60.00,Wednesday
24,13281371.300615383
36,9000000.0
72,6750000.0
1207,602414.5677490754
1270,3678956.7328663063
2,1, 6, 1, 0,18, 0.00,15.00,Wednesday
24,13271564.210823795
36,9000000.0
72,6750000.0
1207,592489.0328435173
1270,3679075.177980278
2,1, 6, 1, 0,18,15.00,30.00,Wednesday
24,13275662.726578107
36,9000000.0
72,6750000.0
1207,596469.7420039668
1270,3679192.9845741396
2,1, 6, 1, 0,18,30.00,45.00,Wednesday
24,13275792.932788694
36,9000000.0
72,6750000.0
1207,596482.7053065028
1270,3679310.2274821918
2,1, 6, 1, 0,18,45.00,60.00,Wednesday
24,13274233.718342127
36,9000000.0
72,6750000.0
1207,594806.8103235792
1270,3679426.9080185494
2,1, 6, 1, 0,19, 0.00,15.00,Wednesday
24,9669821.804231798
36,5400000.0
72,4050000.0
1207,589606.758008379
1270,3680215.0462234174
2,1, 6, 1, 0,19,15.00,30.00,Wednesday
24,9670623.190962534
36,5400000.0
72,4050000.0
1207,589606.758008379
1270,3681016.4329541535
2,1, 6, 1, 0,19,30.00,45.00,Wednesday
24,9671438.27486668
36,5400000.0
72,4050000.0
1207,589606.758008379
1270,3681831.516858298
2,1, 6, 1, 0,19,45.00,60.00,Wednesday
24,9672327.438462708
36,5400000.0
72,4050000.0
1207,589666.8566580021
1270,3682660.581804707
2,1, 6, 1, 0,20, 0.00,15.00,Wednesday
24,8323596.602861433
36,4050000.0
72,2700000.0
1207,589606.758008379
1270,3683989.8448530543
2,1, 6, 1, 0,20,15.00,30.00,Wednesday
24,8324962.875535234
36,4050000.0
72,2700000.0
1207,589606.758008379
1270,3685356.117526856
2,1, 6, 1, 0,20,30.00,45.00,Wednesday
24,8326367.550633351
36,4050000.0
72,2700000.0
1207,589606.758008379
1270,3686760.7926249723
2,1, 6, 1, 0,20,45.00,60.00,Wednesday
24,8327812.161469946
36,4050000.0
72,2700000.0
1207,589606.758008379
1270,3688205.4034615667
2,1, 6, 1, 0,21, 0.00,15.00,Wednesday
24,8329167.229185125
36,4050000.0
72,2700000.0
1207,589606.758008379
1270,3689560.471176746
2,1, 6, 1, 0,21,15.00,30.00,Wednesday
24,8330557.042900566
36,4050000.0
72,2700000.0
1207,589606.758008379
1270,3690950.284892187
2,1, 6, 1, 0,21,30.00,45.00,Wednesday
24,8331982.931858071
36,4050000.0
72,2700000.0
1207,589606.758008379
1270,3692376.173849692
2,1, 6, 1, 0,21,45.00,60.00,Wednesday
24,8333446.194139929
36,4050000.0
72,2700000.0
1207,589606.758008379
1270,3693839.4361315495
2,1, 6, 1, 0,22, 0.00,15.00,Wednesday
24,4711842.023388513
36,427500.0
72,337500.0
1207,589606.758008379
1270,3694735.265380134
2,1, 6, 1, 0,22,15.00,30.00,Wednesday
24,4712749.820174226
36,427500.0
72,337500.0
1207,589606.758008379
1270,3695643.062165847
2,1, 6, 1, 0,22,30.00,45.00,Wednesday
24,4713669.92665066
36,427500.0
72,337500.0
1207,589606.758008379
1270,3696563.1686422816
2,1, 6, 1, 0,22,45.00,60.00,Wednesday
24,4714602.506937654
36,427500.0
72,337500.0
1207,589606.758008379
1270,3697495.7489292757
2,1, 6, 1, 0,23, 0.00,15.00,Wednesday
24,4714903.707399464
36,427500.0
72,337500.0
1207,589606.758008379
1270,3697796.949391086
2,1, 6, 1, 0,23,15.00,30.00,Wednesday
24,4715201.601920523
36,427500.0
72,337500.0
1207,589606.758008379
1270,3698094.8439121437
2,1, 6, 1, 0,23,30.00,45.00,Wednesday
24,4715490.994442209
36,427500.0
72,337500.0
1207,589606.758008379
1270,3698384.2364338296
2,1, 6, 1, 0,23,45.00,60.00,Wednesday
24,4715783.701973495
36,427500.0
72,337500.0
1207,589606.758008379
1270,3698676.943965116
2,1, 6, 1, 0,24, 0.00,15.00,Wednesday
24,4715557.880283381
36,427500.0
72,337500.0
1207,589606.758008379
1270,3698451.122275002
2,1, 6, 1, 0,24,15.00,30.00,Wednesday
24,4715324.958344448
36,427500.0
72,337500.0
1207,589606.758008379
1270,3698218.2003360693
2,1, 6, 1, 0,24,30.00,45.00,Wednesday
24,4715074.5096024005
36,427500.0
72,337500.0
1207,589606.758008379
1270,3697967.7515940224
2,1, 6, 1, 0,24,45.00,60.00,Wednesday
24,4714811.783402315
36,427500.0
72,337500.0
1207,589606.758008379
1270,3697705.0253939372
2,2, 6, 2, 0, 1, 0.00,15.00,Thursday
24,4713478.290793729
36,427500.0
72,337500.0
1207,589606.758008379
1270,3696371.53278535
2,2, 6, 2, 0, 1,15.00,30.00,Thursday
24,4712165.668139788
36,427500.0
72,337500.0
1207,589606.758008379
1270,3695058.9101314093
2,2, 6, 2, 0, 1,30.00,45.00,Thursday
24,4710873.657455941
36,427500.0
72,337500.0
1207,589606.758008379
1270,3693766.8994475626
2,2, 6, 2, 0, 1,45.00,60.00,Thursday
24,4710509.279905183
36,427500.0
72,337500.0
1207,590514.1173981382
1270,3692495.1625070455
2,2, 6, 2, 0, 2, 0.00,15.00,Thursday
24,4714732.749917833
36,427500.0
72,337500.0
1207,596594.1649209771
1270,3690638.584996856
2,2, 6, 2, 0, 2,15.00,30.00,Thursday
24,4742247.2335425215
36,427500.0
72,337500.0
1207,601579.623846272
1270,3713167.60969625
2,2, 6, 2, 0, 2,30.00,45.00,Thursday
24,4704182.810239505
36,427500.0
72,337500.0
1207,589606.758008379
1270,3687076.052231126
2,2, 6, 2, 0, 2,45.00,60.00,Thursday
24,4707848.856352555
36,427500.0
72,337500.0
1207,594982.5250754635
1270,3685366.3312770915
2,2, 6, 2, 0, 3, 0.00,15.00,Thursday
24,4708385.633141864
36,427500.0
72,337500.0
1207,597691.1431114026
1270,3683194.490030461
2,2, 6, 2, 0, 3,15.00,30.00,Thursday
24,4698208.436381561
36,427500.0
72,337500.0
1207,589606.758008379
1270,3681101.678373182
2,2, 6, 2, 0, 3,30.00,45.00,Thursday
24,4696851.620198797
36,427500.0
72,337500.0
1207,590267.8113947818
1270,3679083.808804016
2,2, 6, 2, 0, 3,45.00,60.00,Thursday
24,4699863.438680012
36,427500.0
72,337500.0
1207,595226.2766582608
1270,3677137.1620217506
2,2, 6, 2, 0, 4, 0.00,15.00,Thursday
24,4691886.732228495
36,427500.0
72,337500.0
1207,589606.758008379
1270,3674779.974220117
2,2, 6, 2, 0, 4,15.00,30.00,Thursday
24,4694956.230575852
36,427500.0
72,337500.0
1207,594923.4140309356
1270,3672532.8165449165
2,2, 6, 2, 0, 4,30.00,45.00,Thursday
24,4687490.834497944
36,427500.0
72,337500.0
1207,589606.758008379
1270,3670384.0764895654
2,2, 6, 2, 0, 4,45.00,60.00,Thursday
24,4690874.194197985
36,427500.0
72,337500.0
1207,595039.0342894241
1270,3668335.1599085615
2,2, 6, 2, 0, 5, 0.00,15.00,Thursday
24,4683627.831223574
36,427500.0
72,337500.0
1207,589606.758008379
1270,3666521.0732151954
2,2, 6, 2, 0, 5,15.00,30.00,Thursday
24,4689506.444528188
36,427500.0
72,337500.0
1207,597224.1369908736
1270,3664782.307537314
2,2, 6, 2, 0, 5,30.00,45.00,Thursday
24,4680221.202242469
36,427500.0
72,337500.0
1207,589606.758008379
1270,3663114.4442340913
2,2, 6, 2, 0, 5,45.00,60.00,Thursday
24,4684111.338961952
36,427500.0
72,337500.0
1207,595098.0403715526
1270,3661513.2985904007
2,2, 6, 2, 0, 6, 0.00,15.00,Thursday
24,4682966.188476701
36,427500.0
72,337500.0
1207,594575.5176298355
1270,3660890.670846866
2,2, 6, 2, 0, 6,15.00,30.00,Thursday
24,4679561.390142478
36,427500.0
72,337500.0
1207,591783.5071762649
1270,3660277.8829662143
2,2, 6, 2, 0, 6,30.00,45.00,Thursday
24,4682906.635595305
36,427500.0
72,337500.0
1207,595731.9456108464
1270,3659674.689984459
2,2, 6, 2, 0, 6,45.00,60.00,Thursday
24,4677449.689619361
36,427500.0
72,337500.0
1207,590868.7564079496
1270,3659080.9332114123
2,2, 6, 2, 0, 7, 0.00,15.00,Thursday
24,4686351.486309323
36,427500.0
72,337500.0
1207,599371.6581134154
1270,3659479.8281959086
2,2, 6, 2, 0, 7,15.00,30.00,Thursday
24,4676986.568488358
36,427500.0
72,337500.0
1207,589606.758008379
1270,3659879.810479979
2,2, 6, 2, 0, 7,30.00,45.00,Thursday
24,4678730.010877337
36,427500.0
72,337500.0
1207,590949.0938453487
1270,3660280.9170319885
2,2, 6, 2, 0, 7,45.00,60.00,Thursday
24,4679664.13405337
36,427500.0
72,337500.0
1207,591481.0384704478
1270,3660683.0955829234
2,2, 6, 2, 0, 8, 0.00,15.00,Thursday
24,4679444.37693698
36,427500.0
72,337500.0
1207,589606.758008379
1270,3662337.6189286015
2,2, 6, 2, 0, 8,15.00,30.00,Thursday
24,4681163.21998192
36,427500.0
72,337500.0
1207,589606.758008379
1270,3664056.461973541
2,2, 6, 2, 0, 8,30.00,45.00,Thursday
24,4682949.973929452
36,427500.0
72,337500.0
1207,589606.758008379
1270,3665843.2159210728
2,2, 6, 2, 0, 8,45.00,60.00,Thursday
24,5148616.543563813
36,427500.0
72,337500.0
1207,589606.758008379
1270,4131509.7855554335
2,2, 6, 2, 0, 9, 0.00,15.00,Thursday
24,14454538.789555246
36,7875000.0
72,6075000.0
1207,617216.6196821713
1270,5962322.169873073
2,2, 6, 2, 0, 9,15.00,30.00,Thursday
24,13202392.916031053
36,7875000.0
72,6075000.0
1207,594511.7570994161
1270,4732881.158931636
2,2, 6, 2, 0, 9,30.00,45.00,Thursday
24,12137994.668818248
36,7875000.0
72,6075000.0
1207,589606.758008379
1270,3673387.9108098685
2,2, 6, 2, 0, 9,45.00,60.00,Thursday
24,12140007.294541731
36,7875000.0
72,6075000.0
1207,589606.758008379
1270,3675400.5365333515
2,2, 6, 2, 0,10, 0.00,15.00,Thursday
24,14728983.157928905
36,10462500.0
72,6412500.0
1207,589740.1268569736
1270,3676743.0310719316
2,2, 6, 2, 0,10,15.00,30.00,Thursday
24,14731247.214818543
36,10462500.0
72,6412500.0
1207,590656.7969959524
1270,3678090.4178225873
2,2, 6, 2, 0,10,30.00,45.00,Thursday
24,14732068.333741661
36,10462500.0
72,6412500.0
1207,590127.4037430454
1270,3679440.929998616
2,2, 6, 2, 0,10,45.00,60.00,Thursday
24,14733734.626548765
36,10462500.0
72,6412500.0
1207,590442.1280568158
1270,3680792.498491948
2,2, 6, 2, 0,11, 0.00,15.00,Thursday
24,15074684.183150848
36,10800000.0
72,6750000.0
1207,593248.5256094807
1270,3681435.6575413696
2,2, 6, 2, 0,11,15.00,30.00,Thursday
24,15262210.974683376
36,10800000.0
72,6750000.0
1207,604707.4447102472
1270,3857503.529973129
2,2, 6, 2, 0,11,30.00,45.00,Thursday
24,15218677.12105331
36,10800000.0
72,6750000.0
1207,603768.0612684095
1270,3814909.0597849027
2,2, 6, 2, 0,11,45.00,60.00,Thursday
24,15375033.662041398
36,10800000.0
72,6750000.0
1207,611771.9276021535
1270,3963261.734439244
2,2, 6, 2, 0,12, 0.00,15.00,Thursday
24,14837600.271036642
36,10462500.0
72,6412500.0
1207,602177.728011763
1270,3772922.5430248794
2,2, 6, 2, 0,12,15.00,30.00,Thursday
24,14892950.876891417
36,10462500.0
72,6412500.0
1207,604591.3352168252
1270,3825859.5416745916
2,2, 6, 2, 0,12,30.00,45.00,Thursday
24,15055865.494658368
36,10462500.0
72,6412500.0
1207,612341.5868278563
1270,3981023.9078305094
2,2, 6, 2, 0,12,45.00,60.00,Thursday
24,15229583.130329665
36,10462500.0
72,6412500.0
1207,616336.7414393015
1270,4150746.388890364
2,2, 6, 2, 0,13, 0.00,15.00,Thursday
24,13735543.672788125
36,9450000.0
72,5400000.0
1207,600340.8776993353
1270,3685202.795088789
2,2, 6, 2, 0,13,15.00,30.00,Thursday
24,13950389.215114992
36,9450000.0
72,5400000.0
1207,603945.5064715729
1270,3896443.708643418
2,2, 6, 2, 0,13,30.00,45.00,Thursday
24,14163025.230811791
36,9450000.0
72,5400000.0
1207,614723.1000559134
1270,4098302.130755878
2,2, 6, 2, 0,13,45.00,60.00,Thursday
24,13732719.334202854
36,9450000.0
72,5400000.0
1207,598839.6279203845
1270,3683879.706282468
2,2, 6, 2, 0,14, 0.00,15.00,Thursday
24,15368640.79713187
36,10125000.0
72,6075000.0
1207,636287.533064953
1270,4607353.264066915
2,2, 6, 2, 0,14,15.00,30.00,Thursday
24,15013240.920177395
36,10125000.0
72,6075000.0
1207,618360.057830689
1270,4269880.862346706
2,2, 6, 2, 0,14,30.00,45.00,Thursday
24,16128678.601365926
36,10125000.0
72,6075000.0
1207,669346.8676238481
1270,5334331.733742075
2,2, 6, 2, 0,14,45.00,60.00,Thursday
24,14921671.25217479
36,10125000.0
72,6075000.0
1207,611564.5820062538
1270,4185106.670168534
2,2, 6, 2, 0,15, 0.00,15.00,Thursday
24,17082830.476165283
36,10350000.0
72,6750000.0
1207,733365.5884530353
1270,5999464.887712246
2,2, 6, 2, 0,15,15.00,30.00,Thursday
24,14898463.045965482
36,10350000.0
72,6750000.0
1207,602958.8272671418
1270,3945504.21869834
2,2, 6, 2, 0,15,30.00,45.00,Thursday
24,18424004.63730877
36,10350000.0
72,6750000.0
1207,850628.7795925264
1270,7223375.85771624
2,2, 6, 2, 0,15,45.00,60.00,Thursday
24,14804620.494509604
36,10350000.0
72,6750000.0
1207,597985.0326467623
1270,3856635.461862841
2,2, 6, 2, 0,16, 0.00,15.00,Thursday
24,17317134.753295682
36,9900000.0
72,6750000.0
1207,782524.461691807
1270,6634610.2916038735
2,2, 6, 2, 0,16,15.00,30.00,Thursday
24,14357384.887045823
36,9900000.0
72,6750000.0
1207,597204.2299041839
1270,3860180.657141639
2,2, 6, 2, 0,16,30.00,45.00,Thursday
24,17133795.755150873
36,9900000.0
72,6750000.0
1207,750207.4390110481
1270,6483588.316139823
2,2, 6, 2, 0,16,45.00,60.00,Thursday
24,14316971.481314367
36,9900000.0
72,6750000.0
1207,596720.8162382671
1270,3820250.6650760984
2,2, 6, 2, 0,17, 0.00,15.00,Thursday
24,15941321.906474616
36,9000000.0
72,6750000.0
1207,740546.7180092209
1270,6200775.188465394
2,2, 6, 2, 0,17,15.00,30.00,Thursday
24,13343499.188828485
36,9000000.0
72,6750000.0
1207,595863.9337891908
1270,3747635.255039294
2,2, 6, 2, 0,17,30.00,45.00,Thursday
24,13955931.35082721
36,9000000.0
72,6750000.0
1207,610322.2266594331
1270,4345609.124167777
2,2, 6, 2, 0,17,45.00,60.00,Thursday
24,14944312.080976551
36,9000000.0
72,6750000.0
1207,648942.2733997216
1270,5295369.807576829
2,2, 6, 2, 0,18, 0.00,15.00,Thursday
24,14276998.090995384
36,9000000.0
72,6750000.0
1207,616876.8895408777
1270,4660121.201454507
2,2, 6, 2, 0,18,15.00,30.00,Thursday
24,14550833.56804479
36,9000000.0
72,6750000.0
1207,621451.8249512177
1270,4929381.743093569
2,2, 6, 2, 0,18,30.00,45.00,Thursday
24,14156261.903429976
36,9000000.0
72,6750000.0
1207,617196.5056195811
1270,4539065.397810393
2,2, 6, 2, 0,18,45.00,60.00,Thursday
24,14397359.29521925
36,9000000.0
72,6750000.0
1207,630254.4329721824
1270,4767104.862247067
2,2, 6, 2, 0,19, 0.00,15.00,Thursday
24,10013840.03305573
36,5400000.0
72,4050000.0
1207,604369.7305693713
1270,4009470.3024863573
2,2, 6, 2, 0,19,15.00,30.00,Thursday
24,9678762.922642216
36,5400000.0
72,4050000.0
1207,589606.758008379
1270,3689156.1646338347
2,2, 6, 2, 0,19,30.00,45.00,Thursday
24,9677210.293240696
36,5400000.0
72,4050000.0
1207,589606.758008379
1270,3687603.5352323144
2,2, 6, 2, 0,19,45.00,60.00,Thursday
24,9675674.767795984
36,5400000.0
72,4050000.0
1207,589606.758008379
1270,3686068.009787602
2,2, 6, 2, 0,20, 0.00,15.00,Thursday
24,8323924.972604295
36,4050000.0
72,2700000.0
1207,589606.758008379
1270,3684318.214595916
2,2, 6, 2, 0,20,15.00,30.00,Thursday
24,8324405.680341306
36,4050000.0
72,2700000.0
1207,591805.9729865976
1270,3682599.707354709
2,2, 6, 2, 0,20,30.00,45.00,Thursday
24,8320519.3970257575
36,4050000.0
72,2700000.0
1207,589606.758008379
1270,3680912.6390173784
2,2, 6, 2, 0,20,45.00,60.00,Thursday
24,8318863.835651448
36,4050000.0
72,2700000.0
1207,589606.758008379
1270,3679257.077643069
2,2, 6, 2, 0,21, 0.00,15.00,Thursday
24,8318218.743387107
36,4050000.0
72,2700000.0
1207,589606.758008379
1270,3678611.985378728
2,2, 6, 2, 0,21,15.00,30.00,Thursday
24,8317555.4666432645
36,4050000.0
72,2700000.0
1207,589606.758008379
1270,3677948.7086348855
2,2, 6, 2, 0,21,30.00,45.00,Thursday
24,8316875.307324994
36,4050000.0
72,2700000.0
1207,589606.758008379
1270,3677268.5493166153
2,2, 6, 2, 0,21,45.00,60.00,Thursday
24,8316179.608768912
36,4050000.0
72,2700000.0
1207,589606.758008379
1270,3676572.850760534
2,2, 6, 2, 0,22, 0.00,15.00,Thursday
24,4693249.537737823
36,427500.0
72,337500.0
1207,589606.758008379
1270,3676142.7797294445
2,2, 6, 2, 0,22,15.00,30.00,Thursday
24,4695580.052383013
36,427500.0
72,337500.0
1207,592376.3837354206
1270,3675703.668647592
2,2, 6, 2, 0,22,30.00,45.00,Thursday
24,4699512.277232095
36,427500.0
72,337500.0
1207,596756.2261539963
1270,3675256.051078098
2,2, 6, 2, 0,22,45.00,60.00,Thursday
24,4691907.087910338
36,427500.0
72,337500.0
1207,589606.758008379
1270,3674800.3299019593
2,2, 6, 2, 0,23, 0.00,15.00,Thursday
24,4701123.195920858
36,427500.0
72,337500.0
1207,598490.7314972037
1270,3675132.464423654
2,2, 6, 2, 0,23,15.00,30.00,Thursday
24,4692566.425907863
36,427500.0
72,337500.0
1207,589606.758008379
1270,3675459.667899485
2,2, 6, 2, 0,23,30.00,45.00,Thursday
24,4704874.2541083535
36,427500.0
72,337500.0
1207,601592.3399470968
1270,3675781.914161257
2,2, 6, 2, 0,23,45.00,60.00,Thursday
24,4693205.89339186
36,427500.0
72,337500.0
1207,589606.758008379
1270,3676099.135383481
2,2, 6, 2, 0,24, 0.00,15.00,Thursday
24,4704530.431725118
36,427500.0
72,337500.0
1207,600722.5380221991
1270,3676307.8937029187
2,2, 6, 2, 0,24,15.00,30.00,Thursday
24,4693621.082161947
36,427500.0
72,337500.0
1207,589606.758008379
1270,3676514.3241535686
2,2, 6, 2, 0,24,30.00,45.00,Thursday
24,4706419.41048556
36,427500.0
72,337500.0
1207,602200.9554423206
1270,3676718.4550432395
2,2, 6, 2, 0,24,45.00,60.00,Thursday
24,4694027.10916002
36,427500.0
72,337500.0
1207,589606.758008379
1270,3676920.3511516415
2,3, 6, 3, 0, 1, 0.00,15.00,Friday
24,4694009.988473694
36,427500.0
72,337500.0
1207,589606.758008379
1270,3676903.2304653144
2,3, 6, 3, 0, 1,15.00,30.00,Friday
24,4693988.966313649
36,427500.0
72,337500.0
1207,589606.758008379
1270,3676882.20830527
2,3, 6, 3, 0, 1,30.00,45.00,Friday
24,4693964.075050726
36,427500.0
72,337500.0
1207,589606.758008379
1270,3676857.3170423475
2,3, 6, 3, 0, 1,45.00,60.00,Friday
24,4693935.299851709
36,427500.0
72,337500.0
1207,589606.758008379
1270,3676828.54184333
2,3, 6, 3, 0, 2, 0.00,15.00,Friday
24,4693906.594460404
36,427500.0
72,337500.0
1207,589606.758008379
1270,3676799.8364520245
2,3, 6, 3, 0, 2,15.00,30.00,Friday
24,4693874.058514685
36,427500.0
72,337500.0
1207,589606.758008379
1270,3676767.3005063073
2,3, 6, 3, 0, 2,30.00,45.00,Friday
24,4693837.735239843
36,427500.0
72,337500.0
1207,589606.758008379
1270,3676730.977231464
2,3, 6, 3, 0, 2,45.00,60.00,Friday
24,4693797.672715069
36,427500.0
72,337500.0
1207,589606.758008379
1270,3676690.9147066907
2,3, 6, 3, 0, 3, 0.00,15.00,Friday
24,4692322.01840045
36,427500.0
72,337500.0
1207,589606.758008379
1270,3675215.260392071
2,3, 6, 3, 0, 3,15.00,30.00,Friday
24,4690891.753875809
36,427500.0
72,337500.0
1207,589606.758008379
1270,3673784.9958674307
2,3, 6, 3, 0, 3,30.00,45.00,Friday
24,4689504.8278200915
36,427500.0
72,337500.0
1207,589606.758008379
1270,3672398.0698117125
2,3, 6, 3, 0, 3,45.00,60.00,Friday
24,4688155.278476575
36,427500.0
72,337500.0
1207,589606.758008379
1270,3671048.5204681964
2,3, 6, 3, 0, 4, 0.00,15.00,Friday
24,4686053.696109053
36,427500.0
72,337500.0
1207,589606.758008379
1270,3668946.9381006737
2,3, 6, 3, 0, 4,15.00,30.00,Friday
24,4684052.645884854
36,427500.0
72,337500.0
1207,589606.758008379
1270,3666945.8878764757
2,3, 6, 3, 0, 4,30.00,45.00,Friday
24,4682145.259095486
36,427500.0
72,337500.0
1207,589606.758008379
1270,3665038.501087108
2,3, 6, 3, 0, 4,45.00,60.00,Friday
24,4680325.320539038
36,427500.0
72,337500.0
1207,589606.758008379
1270,3663218.5625306596
2,3, 6, 3, 0, 5, 0.00,15.00,Friday
24,4678587.13491364
36,427500.0
72,337500.0
1207,589606.758008379
1270,3661480.376905262
2,3, 6, 3, 0, 5,15.00,30.00,Friday
24,4676925.46206654
36,427500.0
72,337500.0
1207,589606.758008379
1270,3659818.7040581605
2,3, 6, 3, 0, 5,30.00,45.00,Friday
24,4675335.504023402
36,427500.0
72,337500.0
1207,589606.758008379
1270,3658228.746015024
2,3, 6, 3, 0, 5,45.00,60.00,Friday
24,4673812.907148104
36,427500.0
72,337500.0
1207,589606.758008379
1270,3656706.149139726
2,3, 6, 3, 0, 6, 0.00,15.00,Friday
24,4672949.098397853
36,427500.0
72,337500.0
1207,589606.758008379
1270,3655842.3403894748
2,3, 6, 3, 0, 6,15.00,30.00,Friday
24,4672106.7092999825
36,427500.0
72,337500.0
1207,589606.758008379
1270,3654999.9512916044
2,3, 6, 3, 0, 6,30.00,45.00,Friday
24,4671285.096193861
36,427500.0
72,337500.0
1207,589606.758008379
1270,3654178.338185483
2,3, 6, 3, 0, 6,45.00,60.00,Friday
24,4670483.469105109
36,427500.0
72,337500.0
1207,589606.758008379
1270,3653376.7110967296
2,3, 6, 3, 0, 7, 0.00,15.00,Friday
24,4670761.429626708
36,427500.0
72,337500.0
1207,589606.758008379
1270,3653654.67161833
2,3, 6, 3, 0, 7,15.00,30.00,Friday
24,4671038.581353885
36,427500.0
72,337500.0
1207,589606.758008379
1270,3653931.823345506
2,3, 6, 3, 0, 7,30.00,45.00,Friday
24,4671314.838841894
36,427500.0
72,337500.0
1207,589606.758008379
1270,3654208.0808335147
2,3, 6, 3, 0, 7,45.00,60.00,Friday
24,4671590.1689399425
36,427500.0
72,337500.0
1207,589606.758008379
1270,3654483.4109315644
2,3, 6, 3, 0, 8, 0.00,15.00,Friday
24,4672482.170874823
36,427500.0
72,337500.0
1207,589606.758008379