Program Version,EnergyPlus, Version 23.2.0-7636e6b3e9, YMD=2025.07.14 20:45
1,5,Environment Title[],Latitude[deg],Longitude[deg],Time Zone[],Elevation[m]
2,8,Day of Simulation[],Month[],Day of Month[],DST Indicator[1=yes 0=no],Hour[],StartMinute[],EndMinute[],DayType
3,5,Cumulative Day of Simulation[],Month[],Day of Month[],DST Indicator[1=yes 0=no],DayType  ! When Daily Meters Requested
4,2,Cumulative Days of Simulation[],Month[]  ! When Monthly Meters Requested
5,1,Cumulative Days of Simulation[] ! When Run Period Meters Requested
6,1,Calendar Year of Simulation[] ! When Annual Meters Requested
24,1,Electricity:Facility [J] !TimeStep
36,1,Electricity:Building [J] !TimeStep
72,1,InteriorLights:Electricity [J] !TimeStep
1207,1,Electricity:HVAC [J] !TimeStep
1270,1,Electricity:Plant [J] !TimeStep
29,11,Electricity:Facility [J] !RunPeriod [Value,Min,Month,Day,Hour,Minute,Max,Month,Day,Hour,Minute]
41,11,Electricity:Building [J] !RunPeriod [Value,Min,Month,Day,Hour,Minute,Max,Month,Day,Hour,Minute]
77,11,InteriorLights:Electricity [J] !RunPeriod [Value,Min,Month,Day,Hour,Minute,Max,Month,Day,Hour,Minute]
1212,11,Electricity:HVAC [J] !RunPeriod [Value,Min,Month,Day,Hour,Minute,Max,Month,Day,Hour,Minute]
1275,11,Electricity:Plant [J] !RunPeriod [Value,Min,Month,Day,Hour,Minute,Max,Month,Day,Hour,Minute]
End of Data Dictionary
1,RUN PERIOD 2,  36.60, 117.05,   8.00, 215.00
2,1, 6, 1, 0, 1, 0.00,15.00,Wednesday
24,4661883.950440934
36,427500.0
72,337500.0
1207,592840.2253004119
1270,3641543.725140522
2,1, 6, 1, 0, 1,15.00,30.00,Wednesday
24,4660383.999575077
36,427500.0
72,337500.0
1207,592840.2253004119
1270,3640043.7742746645
2,1, 6, 1, 0, 1,30.00,45.00,Wednesday
24,4658681.355488433
36,427500.0
72,337500.0
1207,592840.2253004119
1270,3638341.1301880204
2,1, 6, 1, 0, 1,45.00,60.00,Wednesday
24,4656835.629523086
36,427500.0
72,337500.0
1207,592840.2253004119
1270,3636495.4042226737
2,1, 6, 1, 0, 2, 0.00,15.00,Wednesday
24,4656779.232387009
36,427500.0
72,337500.0
1207,592840.2253004119
1270,3636439.007086597
2,1, 6, 1, 0, 2,15.00,30.00,Wednesday
24,4656719.258883436
36,427500.0
72,337500.0
1207,592840.2253004119
1270,3636379.033583024
2,1, 6, 1, 0, 2,30.00,45.00,Wednesday
24,4656655.776928991
36,427500.0
72,337500.0
1207,592840.2253004119
1270,3636315.551628579
2,1, 6, 1, 0, 2,45.00,60.00,Wednesday
24,4656588.8275676705
36,427500.0
72,337500.0
1207,592840.2253004119
1270,3636248.602267258
2,1, 6, 1, 0, 3, 0.00,15.00,Wednesday
24,4656337.966114882
36,427500.0
72,337500.0
1207,592840.2253004119
1270,3635997.74081447
2,1, 6, 1, 0, 3,15.00,30.00,Wednesday
24,4656086.894459372
36,427500.0
72,337500.0
1207,592840.2253004119
1270,3635746.6691589598
2,1, 6, 1, 0, 3,30.00,45.00,Wednesday
24,4655835.7161594825
36,427500.0
72,337500.0
1207,592840.2253004119
1270,3635495.4908590703
2,1, 6, 1, 0, 3,45.00,60.00,Wednesday
24,4655584.481778615
36,427500.0
72,337500.0
1207,592840.2253004119
1270,3635244.2564782025
2,1, 6, 1, 0, 4, 0.00,15.00,Wednesday
24,4655316.583482523
36,427500.0
72,337500.0
1207,592840.2253004119
1270,3634976.3581821113
2,1, 6, 1, 0, 4,15.00,30.00,Wednesday
24,4655046.563134102
36,427500.0
72,337500.0
1207,592840.2253004119
1270,3634706.33783369
2,1, 6, 1, 0, 4,30.00,45.00,Wednesday
24,4654774.461661026
36,427500.0
72,337500.0
1207,592840.2253004119
1270,3634434.2363606133
2,1, 6, 1, 0, 4,45.00,60.00,Wednesday
24,4654500.35447561
36,427500.0
72,337500.0
1207,592840.2253004119
1270,3634160.129175198
2,1, 6, 1, 0, 5, 0.00,15.00,Wednesday
24,4654356.596382825
36,427500.0
72,337500.0
1207,592840.2253004119
1270,3634016.3710824125
2,1, 6, 1, 0, 5,15.00,30.00,Wednesday
24,4654183.581400552
36,427500.0
72,337500.0
1207,592840.2253004119
1270,3633843.3561001397
2,1, 6, 1, 0, 5,30.00,45.00,Wednesday
24,4653980.951485281
36,427500.0
72,337500.0
1207,592840.2253004119
1270,3633640.7261848687
2,1, 6, 1, 0, 5,45.00,60.00,Wednesday
24,4653748.384529741
36,427500.0
72,337500.0
1207,592840.2253004119
1270,3633408.159229328
2,1, 6, 1, 0, 6, 0.00,15.00,Wednesday
24,4653785.452504678
36,427500.0
72,337500.0
1207,592840.2253004119
1270,3633445.227204265
2,1, 6, 1, 0, 6,15.00,30.00,Wednesday
24,4653760.759711962
36,427500.0
72,337500.0
1207,592840.2253004119
1270,3633420.53441155
2,1, 6, 1, 0, 6,30.00,45.00,Wednesday
24,4653671.662452876
36,427500.0
72,337500.0
1207,592840.2253004119
1270,3633331.437152463
2,1, 6, 1, 0, 6,45.00,60.00,Wednesday
24,4653515.743082496
36,427500.0
72,337500.0
1207,592840.2253004119
1270,3633175.5177820837
2,1, 6, 1, 0, 7, 0.00,15.00,Wednesday
24,4653587.062590277
36,427500.0
72,337500.0
1207,592840.2253004119
1270,3633246.8372898647
2,1, 6, 1, 0, 7,15.00,30.00,Wednesday
24,4653627.049362326
36,427500.0
72,337500.0
1207,592840.2253004119
1270,3633286.824061914
2,1, 6, 1, 0, 7,30.00,45.00,Wednesday
24,4653636.604782116
36,427500.0
72,337500.0
1207,592840.2253004119
1270,3633296.3794817035
2,1, 6, 1, 0, 7,45.00,60.00,Wednesday
24,4653616.564814704
36,427500.0
72,337500.0
1207,592840.2253004119
1270,3633276.339514291
2,1, 6, 1, 0, 8, 0.00,15.00,Wednesday
24,4653913.002012175
36,427500.0
72,337500.0
1207,592840.2253004119
1270,3633572.776711762
2,1, 6, 1, 0, 8,15.00,30.00,Wednesday
24,4654105.007693224
36,427500.0
72,337500.0
1207,592840.2253004119
1270,3633764.7823928115
2,1, 6, 1, 0, 8,30.00,45.00,Wednesday
24,23931342.873660587
36,427500.0
72,337500.0
1207,1490447.690628795
1270,22013395.183031797
2,1, 6, 1, 0, 8,45.00,60.00,Wednesday
24,25553078.505359773
36,427500.0
72,337500.0
1207,1490447.6906287952
1270,23635130.814730976
2,1, 6, 1, 0, 9, 0.00,15.00,Wednesday
24,19444373.09974998
36,7875000.0
72,6075000.0
1207,705488.093293499
1270,10863885.006456481
2,1, 6, 1, 0, 9,15.00,30.00,Wednesday
24,16745172.255819267
36,7875000.0
72,6075000.0
1207,659666.0531247873
1270,8210506.202694479
2,1, 6, 1, 0, 9,30.00,45.00,Wednesday
24,16026057.281868992
36,7875000.0
72,6075000.0
1207,647098.1866508326
1270,7503959.095218158
2,1, 6, 1, 0, 9,45.00,60.00,Wednesday
24,12466374.897066414
36,7875000.0
72,6075000.0
1207,597082.33750864
1270,3994292.5595577755
2,1, 6, 1, 0,10, 0.00,15.00,Wednesday
24,14718943.726699047
36,10462500.0
72,6412500.0
1207,621487.6306360962
1270,3634956.0960629513
2,1, 6, 1, 0,10,15.00,30.00,Wednesday
24,14720421.885436876
36,10462500.0
72,6412500.0
1207,622965.6719330766
1270,3634956.2135038
2,1, 6, 1, 0,10,30.00,45.00,Wednesday
24,14724167.70615615
36,10462500.0
72,6412500.0
1207,626730.7976463505
1270,3634936.9085098
2,1, 6, 1, 0,10,45.00,60.00,Wednesday
24,14728049.930797206
36,10462500.0
72,6412500.0
1207,630652.2125411504
1270,3634897.718256055
2,1, 6, 1, 0,11, 0.00,15.00,Wednesday
24,15068688.106363673
36,10800000.0
72,6750000.0
1207,633728.9876504644
1270,3634959.1187132075
2,1, 6, 1, 0,11,15.00,30.00,Wednesday
24,15071243.15690815
36,10800000.0
72,6750000.0
1207,636236.3720747274
1270,3635006.784833423
2,1, 6, 1, 0,11,30.00,45.00,Wednesday
24,15073232.30427515
36,10800000.0
72,6750000.0
1207,638191.9703942388
1270,3635040.33388091
2,1, 6, 1, 0,11,45.00,60.00,Wednesday
24,15075033.767340962
36,10800000.0
72,6750000.0
1207,639974.369262307
1270,3635059.398078654
2,1, 6, 1, 0,12, 0.00,15.00,Wednesday
24,14730546.586635854
36,10462500.0
72,6412500.0
1207,632932.4053403687
1270,3635114.1812954866
2,1, 6, 1, 0,12,15.00,30.00,Wednesday
24,14731401.768874895
36,10462500.0
72,6412500.0
1207,633749.0748912562
1270,3635152.693983639
2,1, 6, 1, 0,12,30.00,45.00,Wednesday
24,14732457.197077557
36,10462500.0
72,6412500.0
1207,634782.7100979884
1270,3635174.48697957
2,1, 6, 1, 0,12,45.00,60.00,Wednesday
24,14733280.206988022
36,10462500.0
72,6412500.0
1207,635601.0769870492
1270,3635179.130000971
2,1, 6, 1, 0,13, 0.00,15.00,Wednesday
24,13705718.51760494
36,9450000.0
72,5400000.0
1207,620104.0943593374
1270,3635614.4232456028
2,1, 6, 1, 0,13,15.00,30.00,Wednesday
24,13704893.619531495
36,9450000.0
72,5400000.0
1207,618835.3631826497
1270,3636058.256348845
2,1, 6, 1, 0,13,30.00,45.00,Wednesday
24,13705346.59084996
36,9450000.0
72,5400000.0
1207,618835.7357568552
1270,3636510.8550931043
2,1, 6, 1, 0,13,45.00,60.00,Wednesday
24,13706404.65596188
36,9450000.0
72,5400000.0
1207,619432.1910398102
1270,3636972.4649220696
2,1, 6, 1, 0,14, 0.00,15.00,Wednesday
24,14398220.38788714
36,10125000.0
72,6075000.0
1207,635830.7200301785
1270,3637389.6678569615
2,1, 6, 1, 0,14,15.00,30.00,Wednesday
24,14431316.500351697
36,10125000.0
72,6075000.0
1207,639148.4799500734
1270,3667168.0204016236
2,1, 6, 1, 0,14,30.00,45.00,Wednesday
24,14477958.446763882
36,10125000.0
72,6075000.0
1207,640978.4724418598
1270,3711979.974322023
2,1, 6, 1, 0,14,45.00,60.00,Wednesday
24,14523726.554509178
36,10125000.0
72,6075000.0
1207,642749.3134094847
1270,3755977.2410996943
2,1, 6, 1, 0,15, 0.00,15.00,Wednesday
24,14844918.566283945
36,10350000.0
72,6750000.0
1207,647226.3610911225
1270,3847692.2051928225
2,1, 6, 1, 0,15,15.00,30.00,Wednesday
24,14914292.135786101
36,10350000.0
72,6750000.0
1207,650136.0872533738
1270,3914156.0485327276
2,1, 6, 1, 0,15,30.00,45.00,Wednesday
24,14973472.443525232
36,10350000.0
72,6750000.0
1207,652528.7358693045
1270,3970943.70765593
2,1, 6, 1, 0,15,45.00,60.00,Wednesday
24,15028863.553755106
36,10350000.0
72,6750000.0
1207,654722.7184925261
1270,4024140.835262581
2,1, 6, 1, 0,16, 0.00,15.00,Wednesday
24,14461134.304333739
36,9900000.0
72,6750000.0
1207,648525.9399667836
1270,3912608.364366957
2,1, 6, 1, 0,16,15.00,30.00,Wednesday
24,14452254.863690563
36,9900000.0
72,6750000.0
1207,649164.583853652
1270,3903090.279836911
2,1, 6, 1, 0,16,30.00,45.00,Wednesday
24,14447939.819056548
36,9900000.0
72,6750000.0
1207,649822.5781281029
1270,3898117.240928445
2,1, 6, 1, 0,16,45.00,60.00,Wednesday
24,14437417.414137827
36,9900000.0
72,6750000.0
1207,650139.6786990779
1270,3887277.7354387506
2,1, 6, 1, 0,17, 0.00,15.00,Wednesday
24,13277001.686113968
36,9000000.0
72,6750000.0
1207,636026.2311819778
1270,3640975.454931989
2,1, 6, 1, 0,17,15.00,30.00,Wednesday
24,13275501.886222728
36,9000000.0
72,6750000.0
1207,635069.6042807843
1270,3640432.281941945
2,1, 6, 1, 0,17,30.00,45.00,Wednesday
24,13273727.697856706
36,9000000.0
72,6750000.0
1207,633319.2790383358
1270,3640408.41881837
2,1, 6, 1, 0,17,45.00,60.00,Wednesday
24,13271738.698835457
36,9000000.0
72,6750000.0
1207,631356.2421481634
1270,3640382.456687295
2,1, 6, 1, 0,18, 0.00,15.00,Wednesday
24,13269488.922025979
36,9000000.0
72,6750000.0
1207,629197.3326118377
1270,3640291.5894141416
2,1, 6, 1, 0,18,15.00,30.00,Wednesday
24,13266969.64138583
36,9000000.0
72,6750000.0
1207,626771.1928437189
1270,3640198.4485421088
2,1, 6, 1, 0,18,30.00,45.00,Wednesday
24,13263053.596291706
36,9000000.0
72,6750000.0
1207,622950.5299262472
1270,3640103.0663654576
2,1, 6, 1, 0,18,45.00,60.00,Wednesday
24,13259166.198171081
36,9000000.0
72,6750000.0
1207,619160.7155375152
1270,3640005.482633565
2,1, 6, 1, 0,19, 0.00,15.00,Wednesday
24,9640012.524399592
36,5400000.0
72,4050000.0
1207,600010.116512839
1270,3640002.407886754
2,1, 6, 1, 0,19,15.00,30.00,Wednesday
24,9636114.04999296
36,5400000.0
72,4050000.0
1207,596143.6427576484
1270,3639970.4072353123
2,1, 6, 1, 0,19,30.00,45.00,Wednesday
24,9634088.465567263
36,5400000.0
72,4050000.0
1207,594178.0884483636
1270,3639910.377118901
2,1, 6, 1, 0,19,45.00,60.00,Wednesday
24,9633167.416858317
36,5400000.0
72,4050000.0
1207,593344.2321402105
1270,3639823.1847181073
2,1, 6, 1, 0,20, 0.00,15.00,Wednesday
24,8282549.956505176
36,4050000.0
72,2700000.0
1207,592840.2253004119
1270,3639709.731204764
2,1, 6, 1, 0,20,15.00,30.00,Wednesday
24,8282411.269326692
36,4050000.0
72,2700000.0
1207,592840.2253004119
1270,3639571.0440262808
2,1, 6, 1, 0,20,30.00,45.00,Wednesday
24,8411758.251691753
36,4050000.0
72,2700000.0
1207,592840.2253004119
1270,3768918.0263913404
2,1, 6, 1, 0,20,45.00,60.00,Wednesday
24,8571412.360635718
36,4050000.0
72,2700000.0
1207,592840.2253004119
1270,3928572.135335305
2,1, 6, 1, 0,21, 0.00,15.00,Wednesday
24,8703070.315129112
36,4050000.0
72,2700000.0
1207,592840.2253004119
1270,4060230.0898287008
2,1, 6, 1, 0,21,15.00,30.00,Wednesday
24,8804025.097522315
36,4050000.0
72,2700000.0
1207,592840.2253004119
1270,4161184.872221902
2,1, 6, 1, 0,21,30.00,45.00,Wednesday
24,8972526.612698572
36,4050000.0
72,2700000.0
1207,592840.2253004119
1270,4329686.387398159
2,1, 6, 1, 0,21,45.00,60.00,Wednesday
24,9106961.398554776
36,4050000.0
72,2700000.0
1207,592840.2253004119
1270,4464121.173254364
2,1, 6, 1, 0,22, 0.00,15.00,Wednesday
24,4659581.502920331
36,427500.0
72,337500.0
1207,592840.2253004119
1270,3639241.277619919
2,1, 6, 1, 0,22,15.00,30.00,Wednesday
24,4659879.950136529
36,427500.0
72,337500.0
1207,592840.2253004119
1270,3639539.7248361167
2,1, 6, 1, 0,22,30.00,45.00,Wednesday
24,4660176.451256159
36,427500.0
72,337500.0
1207,592840.2253004119
1270,3639836.2259557466
2,1, 6, 1, 0,22,45.00,60.00,Wednesday
24,4660470.969974806
36,427500.0
72,337500.0
1207,592840.2253004119
1270,3640130.7446743934
2,1, 6, 1, 0,23, 0.00,15.00,Wednesday
24,4660687.972993988
36,427500.0
72,337500.0
1207,592840.2253004119
1270,3640347.747693575
2,1, 6, 1, 0,23,15.00,30.00,Wednesday
24,4660900.745566415
36,427500.0
72,337500.0
1207,592840.2253004119
1270,3640560.5202660025
2,1, 6, 1, 0,23,30.00,45.00,Wednesday
24,4661109.287731902
36,427500.0
72,337500.0
1207,592840.2253004119
1270,3640769.0624314896
2,1, 6, 1, 0,23,45.00,60.00,Wednesday
24,4661313.528318753
36,427500.0
72,337500.0
1207,592840.2253004119
1270,3640973.3030183404
2,1, 6, 1, 0,24, 0.00,15.00,Wednesday
24,4661765.121480793
36,427500.0
72,337500.0
1207,592840.2253004119
1270,3641424.89618038
2,1, 6, 1, 0,24,15.00,30.00,Wednesday
24,4662215.983651246
36,427500.0
72,337500.0
1207,592840.2253004119
1270,3641875.758350834
2,1, 6, 1, 0,24,30.00,45.00,Wednesday
24,4662666.062258321
36,427500.0
72,337500.0
1207,592840.2253004119
1270,3642325.8369579082
2,1, 6, 1, 0,24,45.00,60.00,Wednesday
24,4663115.224533446
36,427500.0
72,337500.0
1207,592840.2253004119
1270,3642774.9992330335
2,2, 6, 2, 0, 1, 0.00,15.00,Thursday
24,4663291.729379595
36,427500.0
72,337500.0
1207,592840.2253004119
1270,3642951.5040791826
2,2, 6, 2, 0, 1,15.00,30.00,Thursday
24,4663467.142818697
36,427500.0
72,337500.0
1207,592840.2253004119
1270,3643126.9175182846
2,2, 6, 2, 0, 1,30.00,45.00,Thursday
24,4663641.44224775
36,427500.0
72,337500.0
1207,592840.2253004119
1270,3643301.216947338
2,2, 6, 2, 0, 1,45.00,60.00,Thursday
24,4663814.644780418
36,427500.0
72,337500.0
1207,592840.2253004119
1270,3643474.4194800053
2,2, 6, 2, 0, 2, 0.00,15.00,Thursday
24,4664254.36539313
36,427500.0
72,337500.0
1207,592840.2253004119
1270,3643914.140092718
2,2, 6, 2, 0, 2,15.00,30.00,Thursday
24,4664697.216072976
36,427500.0
72,337500.0
1207,592840.2253004119
1270,3644356.990772563
2,2, 6, 2, 0, 2,30.00,45.00,Thursday
24,4665143.242331581
36,427500.0
72,337500.0
1207,592840.2253004119
1270,3644803.0170311686
2,2, 6, 2, 0, 2,45.00,60.00,Thursday
24,4665592.442990467
36,427500.0
72,337500.0
1207,592840.2253004119
1270,3645252.2176900543
2,2, 6, 2, 0, 3, 0.00,15.00,Thursday
24,4665763.860611271
36,427500.0
72,337500.0
1207,592840.2253004119
1270,3645423.635310859
2,2, 6, 2, 0, 3,15.00,30.00,Thursday
24,4665934.07387015
36,427500.0
72,337500.0
1207,592840.2253004119
1270,3645593.848569738
2,2, 6, 2, 0, 3,30.00,45.00,Thursday
24,4666103.099911999
36,427500.0
72,337500.0
1207,592840.2253004119
1270,3645762.8746115863
2,2, 6, 2, 0, 3,45.00,60.00,Thursday
24,4666270.890684249
36,427500.0
72,337500.0
1207,592840.2253004119
1270,3645930.6653838363
2,2, 6, 2, 0, 4, 0.00,15.00,Thursday
24,4666160.13437221
36,427500.0
72,337500.0
1207,592840.2253004119
1270,3645819.9090717975
2,2, 6, 2, 0, 4,15.00,30.00,Thursday
24,4666048.63829265
36,427500.0
72,337500.0
1207,592840.2253004119
1270,3645708.412992237
2,2, 6, 2, 0, 4,30.00,45.00,Thursday
24,4665936.414768321
36,427500.0
72,337500.0
1207,592840.2253004119
1270,3645596.189467909
2,2, 6, 2, 0, 4,45.00,60.00,Thursday
24,4665823.525018746
36,427500.0
72,337500.0
1207,592840.2253004119
1270,3645483.299718334
2,2, 6, 2, 0, 5, 0.00,15.00,Thursday
24,4665986.442479094
36,427500.0
72,337500.0
1207,592840.2253004119
1270,3645646.217178681
2,2, 6, 2, 0, 5,15.00,30.00,Thursday
24,4666148.079300258
36,427500.0
72,337500.0
1207,592840.2253004119
1270,3645807.8539998457
2,2, 6, 2, 0, 5,30.00,45.00,Thursday
24,4666308.459016458
36,427500.0
72,337500.0
1207,592840.2253004119
1270,3645968.233716046
2,2, 6, 2, 0, 5,45.00,60.00,Thursday
24,4666467.557051687
36,427500.0
72,337500.0
1207,592840.2253004119
1270,3646127.3317512744
2,2, 6, 2, 0, 6, 0.00,15.00,Thursday
24,4666345.355743387
36,427500.0
72,337500.0
1207,592840.2253004119
1270,3646005.130442974
2,2, 6, 2, 0, 6,15.00,30.00,Thursday
24,4666222.53283135
36,427500.0
72,337500.0
1207,592840.2253004119
1270,3645882.307530938
2,2, 6, 2, 0, 6,30.00,45.00,Thursday
24,4666099.08666873
36,427500.0
72,337500.0
1207,592840.2253004119
1270,3645758.8613683176
2,2, 6, 2, 0, 6,45.00,60.00,Thursday
24,4665975.093637165
36,427500.0
72,337500.0
1207,592840.2253004119
1270,3645634.868336752
2,2, 6, 2, 0, 7, 0.00,15.00,Thursday
24,4666426.836206183
36,427500.0
72,337500.0
1207,592840.2253004119
1270,3646086.61090577
2,2, 6, 2, 0, 7,15.00,30.00,Thursday
24,4666884.476578102
36,427500.0
72,337500.0
1207,592840.2253004119
1270,3646544.25127769
2,2, 6, 2, 0, 7,30.00,45.00,Thursday
24,4667348.100234559
36,427500.0
72,337500.0
1207,592840.2253004119
1270,3647007.8749341466
2,2, 6, 2, 0, 7,45.00,60.00,Thursday
24,4667817.749180331
36,427500.0
72,337500.0
1207,592840.2253004119
1270,3647477.5238799187
2,2, 6, 2, 0, 8, 0.00,15.00,Thursday
24,4668001.4055906795
36,427500.0
72,337500.0
1207,592840.2253004119
1270,3647661.1802902673
2,2, 6, 2, 0, 8,15.00,30.00,Thursday
24,4668185.833978246
36,427500.0
72,337500.0
1207,592840.2253004119
1270,3647845.608677834
2,2, 6, 2, 0, 8,30.00,45.00,Thursday
24,24648116.209165316
36,427500.0
72,337500.0
1207,1490447.690628795
1270,22730168.518536523
2,2, 6, 2, 0, 8,45.00,60.00,Thursday
24,26134720.121138267
36,427500.0
72,337500.0
1207,1490447.6906287952
1270,24216772.43050947
2,2, 6, 2, 0, 9, 0.00,15.00,Thursday
24,20712179.4573754
36,7875000.0
72,6075000.0
1207,743965.027330579
1270,12093214.430044819
2,2, 6, 2, 0, 9,15.00,30.00,Thursday
24,16917257.0519132
36,7875000.0
72,6075000.0
1207,657366.7840813401
1270,8384890.267831862
2,2, 6, 2, 0, 9,30.00,45.00,Thursday
24,16894648.225935478
36,7875000.0
72,6075000.0
1207,657366.7840813401
1270,8362281.441854141
2,2, 6, 2, 0, 9,45.00,60.00,Thursday
24,16025323.672029555
36,7875000.0
72,6075000.0
1207,635898.0667493611
1270,7514425.6052801935
2,2, 6, 2, 0,10, 0.00,15.00,Thursday
24,15739674.040334212
36,10462500.0
72,6412500.0
1207,618446.7554034153
1270,4658727.284930797
2,2, 6, 2, 0,10,15.00,30.00,Thursday
24,14728324.675071623
36,10462500.0
72,6412500.0
1207,615157.3955153087
1270,3650667.2795563163
2,2, 6, 2, 0,10,30.00,45.00,Thursday
24,14731238.969923696
36,10462500.0
72,6412500.0
1207,617833.809756327
1270,3650905.1601673686
2,2, 6, 2, 0,10,45.00,60.00,Thursday
24,14736626.2586408
36,10462500.0
72,6412500.0
1207,622981.6632834711
1270,3651144.5953573277
2,2, 6, 2, 0,11, 0.00,15.00,Thursday
24,15077518.769011244
36,10800000.0
72,6750000.0
1207,626253.9653863711
1270,3651264.8036248735
2,2, 6, 2, 0,11,15.00,30.00,Thursday
24,15080321.885502419
36,10800000.0
72,6750000.0
1207,628936.4106642792
1270,3651385.4748381404
2,2, 6, 2, 0,11,30.00,45.00,Thursday
24,15080460.408971822
36,10800000.0
72,6750000.0
1207,628953.924153183
1270,3651506.4848186383
2,2, 6, 2, 0,11,45.00,60.00,Thursday
24,15079762.30527029
36,10800000.0
72,6750000.0
1207,628134.3434115187
1270,3651627.9618587717
2,2, 6, 2, 0,12, 0.00,15.00,Thursday
24,14733780.777422115
36,10462500.0
72,6412500.0
1207,619408.5432384202
1270,3651872.2341836942
2,2, 6, 2, 0,12,15.00,30.00,Thursday
24,14726139.449790724
36,10462500.0
72,6412500.0
1207,611521.306085513
1270,3652118.143705211
2,2, 6, 2, 0,12,30.00,45.00,Thursday
24,14726418.809155643
36,10462500.0
72,6412500.0
1207,611553.0670182533
1270,3652365.7421373907
2,2, 6, 2, 0,12,45.00,60.00,Thursday
24,14726815.915686049
36,10462500.0
72,6412500.0
1207,611700.8653670503
1270,3652615.050318999
2,2, 6, 2, 0,13, 0.00,15.00,Thursday
24,13708194.725063825
36,9450000.0
72,5400000.0
1207,605437.6733487316
1270,3652757.051715094
2,2, 6, 2, 0,13,15.00,30.00,Thursday
24,13707597.790240435
36,9450000.0
72,5400000.0
1207,604712.9164251201
1270,3652884.8738153153
2,2, 6, 2, 0,13,30.00,45.00,Thursday
24,13711293.576857133
36,9450000.0
72,5400000.0
1207,608295.4658515898
1270,3652998.1110055447
2,2, 6, 2, 0,13,45.00,60.00,Thursday
24,13711799.548171021
36,9450000.0
72,5400000.0
1207,608703.0854154748
1270,3653096.462755549
2,2, 6, 2, 0,14, 0.00,15.00,Thursday
24,14395086.759520994
36,10125000.0
72,6075000.0
1207,616554.0235496839
1270,3653532.735971312
2,2, 6, 2, 0,14,15.00,30.00,Thursday
24,14398490.813317351
36,10125000.0
72,6075000.0
1207,619528.8023305826
1270,3653962.010986769
2,2, 6, 2, 0,14,30.00,45.00,Thursday
24,14399298.175447172
36,10125000.0
72,6075000.0
1207,619914.4484793642
1270,3654383.726967809
2,2, 6, 2, 0,14,45.00,60.00,Thursday
24,14399368.13640201
36,10125000.0
72,6075000.0
1207,619570.6395914862
1270,3654797.4968105243
2,2, 6, 2, 0,15, 0.00,15.00,Thursday
24,14625488.808546074
36,10350000.0
72,6750000.0
1207,620663.7088867151
1270,3654825.0996593595
2,2, 6, 2, 0,15,15.00,30.00,Thursday
24,14617021.668614227
36,10350000.0
72,6750000.0
1207,612186.4865404826
1270,3654835.1820737463
2,2, 6, 2, 0,15,30.00,45.00,Thursday
24,14616769.91736276
36,10350000.0
72,6750000.0
1207,611942.4462716001
1270,3654827.471091162
2,2, 6, 2, 0,15,45.00,60.00,Thursday
24,14617181.423481822
36,10350000.0
72,6750000.0
1207,612379.8242502174
1270,3654801.599231607
2,2, 6, 2, 0,16, 0.00,15.00,Thursday
24,14165263.467703525
36,9900000.0
72,6750000.0
1207,610460.1663263651
1270,3654803.3013771595
2,2, 6, 2, 0,16,15.00,30.00,Thursday
24,14165649.207600879
36,9900000.0
72,6750000.0
1207,610845.2894577184
1270,3654803.9181431616
2,2, 6, 2, 0,16,30.00,45.00,Thursday
24,14172928.13322045
36,9900000.0
72,6750000.0
1207,618124.729632112
1270,3654803.4035883383
2,2, 6, 2, 0,16,45.00,60.00,Thursday
24,14174041.649239505
36,9900000.0
72,6750000.0
1207,619239.8424214362
1270,3654801.806818067
2,2, 6, 2, 0,17, 0.00,15.00,Thursday
24,13265596.96113466
36,9000000.0
72,6750000.0
1207,611050.7949863964
1270,3654546.166148263
2,2, 6, 2, 0,17,15.00,30.00,Thursday
24,13264980.496091027
36,9000000.0
72,6750000.0
1207,610688.306418573
1270,3654292.1896724547
2,2, 6, 2, 0,17,30.00,45.00,Thursday
24,13263958.716775367
36,9000000.0
72,6750000.0
1207,609918.8359580673
1270,3654039.8808173
2,2, 6, 2, 0,17,45.00,60.00,Thursday
24,13262402.842517477
36,9000000.0
72,6750000.0
1207,608613.6205536438
1270,3653789.2219638336
2,2, 6, 2, 0,18, 0.00,15.00,Thursday
24,13260917.448927568
36,9000000.0
72,6750000.0
1207,607132.3285516938
1270,3653785.120375876
2,2, 6, 2, 0,18,15.00,30.00,Thursday
24,13255208.540426703
36,9000000.0
72,6750000.0
1207,601428.6450192006
1270,3653779.895407504
2,2, 6, 2, 0,18,30.00,45.00,Thursday
24,13253669.497975629
36,9000000.0
72,6750000.0
1207,599895.8454581038
1270,3653773.652517526
2,2, 6, 2, 0,18,45.00,60.00,Thursday
24,13252747.86865063
36,9000000.0
72,6750000.0
1207,598981.5325167326
1270,3653766.3361338987
2,2, 6, 2, 0,19, 0.00,15.00,Thursday
24,9646361.929171355
36,5400000.0
72,4050000.0
1207,592840.2253004119
1270,3653521.703870945
2,2, 6, 2, 0,19,15.00,30.00,Thursday
24,10086520.900861768
36,5400000.0
72,4050000.0
1207,592840.2253004119
1270,4093680.6755613564
2,2, 6, 2, 0,19,30.00,45.00,Thursday
24,10089442.884151665
36,5400000.0
72,4050000.0
1207,592840.2253004119
1270,4096602.658851254
2,2, 6, 2, 0,19,45.00,60.00,Thursday
24,9742857.911108594
36,5400000.0
72,4050000.0
1207,592840.2253004119
1270,3750017.6858081836
2,2, 6, 2, 0,20, 0.00,15.00,Thursday
24,8929810.486171296
36,4050000.0
72,2700000.0
1207,592840.2253004119
1270,4286970.260870884
2,2, 6, 2, 0,20,15.00,30.00,Thursday
24,9245271.052983228
36,4050000.0
72,2700000.0
1207,592840.2253004119
1270,4602430.827682816
2,2, 6, 2, 0,20,30.00,45.00,Thursday
24,9588500.105172403
36,4050000.0
72,2700000.0
1207,592840.2253004119
1270,4945659.879871991
2,2, 6, 2, 0,20,45.00,60.00,Thursday
24,9573340.877758471
36,4050000.0
72,2700000.0
1207,592840.2253004119
1270,4930500.6524580605
2,2, 6, 2, 0,21, 0.00,15.00,Thursday
24,9718068.79171884
36,4050000.0
72,2700000.0
1207,592840.2253004119
1270,5075228.566418432
2,2, 6, 2, 0,21,15.00,30.00,Thursday
24,10360723.753948806
36,4050000.0
72,2700000.0
1207,592840.2253004119
1270,5717883.528648395
2,2, 6, 2, 0,21,30.00,45.00,Thursday
24,10554400.468933063
36,4050000.0
72,2700000.0
1207,592840.2253004119
1270,5911560.243632653
2,2, 6, 2, 0,21,45.00,60.00,Thursday
24,10679889.468520517
36,4050000.0
72,2700000.0
1207,592840.2253004119
1270,6037049.243220106
2,2, 6, 2, 0,22, 0.00,15.00,Thursday
24,4670289.669168324
36,427500.0
72,337500.0
1207,592840.2253004119
1270,3649949.443867912
2,2, 6, 2, 0,22,15.00,30.00,Thursday
24,4670255.570045337
36,427500.0
72,337500.0
1207,592840.2253004119
1270,3649915.344744925
2,2, 6, 2, 0,22,30.00,45.00,Thursday
24,4670217.836770499
36,427500.0
72,337500.0
1207,592840.2253004119
1270,3649877.611470087
2,2, 6, 2, 0,22,45.00,60.00,Thursday
24,4670176.626747807
36,427500.0
72,337500.0
1207,592840.2253004119
1270,3649836.4014473944
2,2, 6, 2, 0,23, 0.00,15.00,Thursday
24,4669930.106775241
36,427500.0
72,337500.0
1207,592840.2253004119
1270,3649589.8814748283
2,2, 6, 2, 0,23,15.00,30.00,Thursday
24,4669683.798535712
36,427500.0
72,337500.0
1207,592840.2253004119
1270,3649343.5732352994
2,2, 6, 2, 0,23,30.00,45.00,Thursday
24,4669437.793556886
36,427500.0
72,337500.0
1207,592840.2253004119
1270,3649097.5682564736
2,2, 6, 2, 0,23,45.00,60.00,Thursday
24,4669192.0278073875
36,427500.0
72,337500.0
1207,592840.2253004119
1270,3648851.8025069754
2,2, 6, 2, 0,24, 0.00,15.00,Thursday
24,4669139.386498403
36,427500.0
72,337500.0
1207,592840.2253004119
1270,3648799.16119799
2,2, 6, 2, 0,24,15.00,30.00,Thursday
24,4669083.420277647
36,427500.0
72,337500.0
1207,592840.2253004119
1270,3648743.1949772346
2,2, 6, 2, 0,24,30.00,45.00,Thursday
24,4669024.256013198
36,427500.0
72,337500.0
1207,592840.2253004119
1270,3648684.0307127857
2,2, 6, 2, 0,24,45.00,60.00,Thursday
24,4668961.918550319
36,427500.0
72,337500.0
1207,592840.2253004119
1270,3648621.693249907
2,3, 6, 3, 0, 1, 0.00,15.00,Friday
24,4668519.014358578
36,427500.0
72,337500.0
1207,592840.2253004119
1270,3648178.7890581656
2,3, 6, 3, 0, 1,15.00,30.00,Friday
24,4668081.674068713
36,427500.0
72,337500.0
1207,592840.2253004119
1270,3647741.4487683005
2,3, 6, 3, 0, 1,30.00,45.00,Friday
24,4667649.821957452
36,427500.0
72,337500.0
1207,592840.2253004119
1270,3647309.59665704
2,3, 6, 3, 0, 1,45.00,60.00,Friday
24,4667223.351861946
36,427500.0
72,337500.0
1207,592840.2253004119
1270,3646883.1265615337
2,3, 6, 3, 0, 2, 0.00,15.00,Friday
24,4666802.200964579
36,427500.0
72,337500.0
1207,592840.2253004119
1270,3646461.9756641667
2,3, 6, 3, 0, 2,15.00,30.00,Friday
24,4666386.207110211
36,427500.0
72,337500.0
1207,592840.2253004119
1270,3646045.981809799
2,3, 6, 3, 0, 2,30.00,45.00,Friday
24,4665975.329674123
36,427500.0
72,337500.0
1207,592840.2253004119
1270,3645635.1043737107
2,3, 6, 3, 0, 2,45.00,60.00,Friday
24,4665569.48343752
36,427500.0
72,337500.0
1207,592840.2253004119
1270,3645229.258137108
2,3, 6, 3, 0, 3, 0.00,15.00,Friday
24,4665168.531521385
36,427500.0
72,337500.0
1207,592840.2253004119
1270,3644828.306220972
2,3, 6, 3, 0, 3,15.00,30.00,Friday
24,4664772.453980437
36,427500.0
72,337500.0
1207,592840.2253004119
1270,3644432.2286800244
2,3, 6, 3, 0, 3,30.00,45.00,Friday
24,4664381.089260755
36,427500.0
72,337500.0
1207,592840.2253004119
1270,3644040.8639603425
2,3, 6, 3, 0, 3,45.00,60.00,Friday
24,4663994.438102425
36,427500.0
72,337500.0
1207,592840.2253004119
1270,3643654.2128020125
2,3, 6, 3, 0, 4, 0.00,15.00,Friday
24,4664081.044249251
36,427500.0
72,337500.0
1207,592840.2253004119
1270,3643740.818948838
2,3, 6, 3, 0, 4,15.00,30.00,Friday
24,4664163.274865542
36,427500.0
72,337500.0
1207,592840.2253004119
1270,3643823.049565129
2,3, 6, 3, 0, 4,30.00,45.00,Friday
24,4664241.134066064
36,427500.0
72,337500.0
1207,592840.2253004119
1270,3643900.9087656518
2,3, 6, 3, 0, 4,45.00,60.00,Friday
24,4664314.639730427
36,427500.0
72,337500.0
1207,592840.2253004119
1270,3643974.414430015
2,3, 6, 3, 0, 5, 0.00,15.00,Friday
24,4664537.793898453
36,427500.0
72,337500.0
1207,592840.2253004119
1270,3644197.5685980404
2,3, 6, 3, 0, 5,15.00,30.00,Friday
24,4664755.756426714
36,427500.0
72,337500.0
1207,592840.2253004119
1270,3644415.531126302
2,3, 6, 3, 0, 5,30.00,45.00,Friday
24,4664968.503393996
36,427500.0
72,337500.0
1207,592840.2253004119
1270,3644628.278093583
2,3, 6, 3, 0, 5,45.00,60.00,Friday
24,4665176.047657229
36,427500.0
72,337500.0
1207,592840.2253004119
1270,3644835.822356817
2,3, 6, 3, 0, 6, 0.00,15.00,Friday
24,4665225.069936676
36,427500.0
72,337500.0
1207,592840.2253004119
1270,3644884.844636264
2,3, 6, 3, 0, 6,15.00,30.00,Friday
24,4665269.805840191
36,427500.0
72,337500.0
1207,592840.2253004119
1270,3644929.580539779
2,3, 6, 3, 0, 6,30.00,45.00,Friday
24,4665310.282112575
36,427500.0
72,337500.0
1207,592840.2253004119
1270,3644970.0568121625
2,3, 6, 3, 0, 6,45.00,60.00,Friday
24,4665346.514730917
36,427500.0
72,337500.0
1207,592840.2253004119
1270,3645006.2894305047
2,3, 6, 3, 0, 7, 0.00,15.00,Friday
24,4666098.95084105
36,427500.0
72,337500.0
1207,592840.2253004119
1270,3645758.725540637
2,3, 6, 3, 0, 7,15.00,30.00,Friday
24,4666863.261374843
36,427500.0
72,337500.0
1207,592840.2253004119
1270,3646523.036074431
2,3, 6, 3, 0, 7,30.00,45.00,Friday
24,4667639.614915615
36,427500.0
72,337500.0
1207,592840.2253004119
1270,3647299.3896152023
2,3, 6, 3, 0, 7,45.00,60.00,Friday
24,4668428.1798439855
36,427500.0
72,337500.0
1207,592840.2253004119
1270,3648087.9545435733