Program Version,EnergyPlus, Version 23.2.0-7636e6b3e9, YMD=2025.07.14 20:45
1,5,Environment Title[],Latitude[deg],Longitude[deg],Time Zone[],Elevation[m]
2,8,Day of Simulation[],Month[],Day of Month[],DST Indicator[1=yes 0=no],Hour[],StartMinute[],EndMinute[],DayType
3,5,Cumulative Day of Simulation[],Month[],Day of Month[],DST Indicator[1=yes 0=no],DayType  ! When Daily Report Variables Requested
4,2,Cumulative Days of Simulation[],Month[]  ! When Monthly Report Variables Requested
5,1,Cumulative Days of Simulation[] ! When Run Period Report Variables Requested
6,1,Calendar Year of Simulation[] ! When Annual Report Variables Requested
7,1,Environment,Site Outdoor Air Drybulb Temperature [C] !TimeStep
18,1,SPACE1-1,Space People Occupant Count [] !TimeStep
19,1,SPACE2-1,Space People Occupant Count [] !TimeStep
20,1,SPACE3-1,Space People Occupant Count [] !TimeStep
21,1,SPACE4-1,Space People Occupant Count [] !TimeStep
22,1,SPACE5-1,Space People Occupant Count [] !TimeStep
465,1,PLENUM-1,Zone Air Temperature [C] !TimeStep
600,1,PLENUM-1,Zone Thermostat Heating Setpoint Temperature [C] !TimeStep
601,1,PLENUM-1,Zone Thermostat Cooling Setpoint Temperature [C] !TimeStep
602,1,SPACE1-1,Zone Air Temperature [C] !TimeStep
666,1,SPACE1-1,Zone Thermostat Heating Setpoint Temperature [C] !TimeStep
667,1,SPACE1-1,Zone Thermostat Cooling Setpoint Temperature [C] !TimeStep
668,1,SPACE2-1,Zone Air Temperature [C] !TimeStep
732,1,SPACE2-1,Zone Thermostat Heating Setpoint Temperature [C] !TimeStep
733,1,SPACE2-1,Zone Thermostat Cooling Setpoint Temperature [C] !TimeStep
734,1,SPACE3-1,Zone Air Temperature [C] !TimeStep
798,1,SPACE3-1,Zone Thermostat Heating Setpoint Temperature [C] !TimeStep
799,1,SPACE3-1,Zone Thermostat Cooling Setpoint Temperature [C] !TimeStep
800,1,SPACE4-1,Zone Air Temperature [C] !TimeStep
864,1,SPACE4-1,Zone Thermostat Heating Setpoint Temperature [C] !TimeStep
865,1,SPACE4-1,Zone Thermostat Cooling Setpoint Temperature [C] !TimeStep
866,1,SPACE5-1,Zone Air Temperature [C] !TimeStep
930,1,SPACE5-1,Zone Thermostat Heating Setpoint Temperature [C] !TimeStep
931,1,SPACE5-1,Zone Thermostat Cooling Setpoint Temperature [C] !TimeStep
1079,1,SPACE1-1 PEOPLE 1,Zone Thermal Comfort Fanger Model PPD [%] !TimeStep
1080,1,SPACE2-1 PEOPLE 1,Zone Thermal Comfort Fanger Model PPD [%] !TimeStep
1081,1,SPACE3-1 PEOPLE 1,Zone Thermal Comfort Fanger Model PPD [%] !TimeStep
1082,1,SPACE4-1 PEOPLE 1,Zone Thermal Comfort Fanger Model PPD [%] !TimeStep
1083,1,SPACE5-1 PEOPLE 1,Zone Thermal Comfort Fanger Model PPD [%] !TimeStep
End of Data Dictionary
1,RUN PERIOD 2,  36.60, 117.05,   8.00, 215.00
2,1, 6, 1, 0, 1, 0.00,15.00,Wednesday
7,22.5
18,0.0
19,0.0
20,0.0
21,0.0
22,0.0
1079,33.871031875205816
1080,34.29060240862658
1081,34.067189184669814
1082,34.7425687653773
1083,32.322921802272475
465,24.575500434865692
600,0.0
601,0.0
602,22.333081558911854
666,15.0
667,25.0
668,22.297993843198437
732,15.0
733,25.0
734,22.325584049004533
798,15.0
799,25.0
800,22.25484368482536
864,15.0
865,25.0
866,22.423594339715645
930,15.0
931,25.0
2,1, 6, 1, 0, 1,15.00,30.00,Wednesday
7,21.200000000000003
18,0.0
19,0.0
20,0.0
21,0.0
22,0.0
1079,35.286068552053734
1080,35.64383704896686
1081,35.48613109343408
1082,36.10909357507381
1083,33.21071033821815
465,24.390672252589486
600,0.0
601,0.0
602,22.24142808455881
666,15.0
667,30.0
668,22.20931099460352
732,15.0
733,30.0
734,22.233927932650275
798,15.0
799,30.0
800,22.166122845593602
864,15.0
865,30.0
866,22.359925638373397
930,15.0
931,30.0
2,1, 6, 1, 0, 1,30.00,45.00,Wednesday
7,19.900000000000002
18,0.0
19,0.0
20,0.0
21,0.0
22,0.0
1079,36.82975107702306
1080,37.13884826494818
1081,37.07556824681039
1082,37.6022977878465
1083,34.127049755312655
465,24.214594962450462
600,0.0
601,0.0
602,22.138650747963958
666,15.0
667,30.0
668,22.108897057082878
732,15.0
733,30.0
734,22.127262016237392
798,15.0
799,30.0
800,22.066186374871087
864,15.0
865,30.0
866,22.29361505113502
930,15.0
931,30.0
2,1, 6, 1, 0, 1,45.00,60.00,Wednesday
7,18.6
18,0.0
19,0.0
20,0.0
21,0.0
22,0.0
1079,38.459683805085625
1080,38.720298713276485
1081,38.769246595723736
1082,39.18618197995446
1083,35.05196599489689
465,24.04457172862367
600,0.0
601,0.0
602,22.03080837214768
666,15.0
667,30.0
668,22.003568129216
732,15.0
733,30.0
734,22.014175713839375
798,15.0
799,30.0
800,21.9611391009528
864,15.0
865,30.0
866,22.22756376128832
930,15.0
931,30.0
2,1, 6, 1, 0, 2, 0.00,15.00,Wednesday
7,18.475
18,0.0
19,0.0
20,0.0
21,0.0
22,0.0
1079,39.61227439661083
1080,39.87992954080727
1081,39.97056377977984
1082,40.345981024819274
1083,35.87154896470828
465,23.87889172528153
600,0.0
601,0.0
602,21.945715979120077
666,15.0
667,30.0
668,21.91965985356703
732,15.0
733,30.0
734,21.92550952457446
798,15.0
799,30.0
800,21.877263676130983
864,15.0
865,30.0
866,22.168749714330374
930,15.0
931,30.0
2,1, 6, 1, 0, 2,15.00,30.00,Wednesday
7,18.35
18,0.0
19,0.0
20,0.0
21,0.0
22,0.0
1079,40.55010888450043
1080,40.83403071649246
1081,40.93333326655055
1082,41.30096678112142
1083,36.60819595401819
465,23.71763726574138
600,0.0
601,0.0
602,21.8841286574033
666,15.0
667,30.0
668,21.857771850372604
732,15.0
733,30.0
734,21.86244933790037
798,15.0
799,30.0
800,21.8152105618844
864,15.0
865,30.0
866,22.118713257930693
930,15.0
931,30.0
2,1, 6, 1, 0, 2,30.00,45.00,Wednesday
7,18.225
18,0.0
19,0.0
20,0.0
21,0.0
22,0.0
1079,41.37125858810899
1080,41.680900764647845
1081,41.768729422706556
1082,42.14926878144935
1083,37.277382154005096
465,23.561230028100752
600,0.0
601,0.0
602,21.833358863698805
666,15.0
667,30.0
668,21.805746271402317
732,15.0
733,30.0
734,21.811193266466784
798,15.0
799,30.0
800,21.762927656809683
864,15.0
865,30.0
866,22.074962111242648
930,15.0
931,30.0
2,1, 6, 1, 0, 2,45.00,60.00,Wednesday
7,18.1
18,0.0
19,0.0
20,0.0
21,0.0
22,0.0
1079,42.156033070096065
1080,42.493745439913965
1081,42.56562692537922
1082,42.96327070077456
1083,37.90131147281921
465,23.409535065862812
600,0.0
601,0.0
602,21.7847342777718
666,15.0
667,30.0
668,21.755604358409638
732,15.0
733,30.0
734,21.762160757900165
798,15.0
799,30.0
800,21.712556718104402
864,15.0
865,30.0
866,22.03482799091556
930,15.0
931,30.0
2,1, 6, 1, 0, 3, 0.00,15.00,Wednesday
7,17.950000000000003
18,0.0
19,0.0
20,0.0
21,0.0
22,0.0
1079,42.98029802228614
1080,43.3646749214397
1081,43.429199729394895
1082,43.83018519155975
1083,38.51221064258753
465,23.261467777584688
600,0.0
601,0.0
602,21.73417980486922
666,15.0
667,30.0
668,21.70276915239473
732,15.0
733,30.0
734,21.709752850756768
798,15.0
799,30.0
800,21.659664461649385
864,15.0
865,30.0
866,21.99634273379447
930,15.0
931,30.0
2,1, 6, 1, 0, 3,15.00,30.00,Wednesday
7,17.8
18,0.0
19,0.0
20,0.0
21,0.0
22,0.0
1079,43.80783234449723
1080,44.24266944758916
1081,44.30856939597599
1082,44.704560223552456
1083,39.11189359674165
465,23.115998291494996
600,0.0
601,0.0
602,21.682842574442795
666,15.0
667,30.0
668,21.648542717392402
732,15.0
733,30.0
734,21.655320270084395
798,15.0
799,30.0
800,21.605624017684875
864,15.0
865,30.0
866,21.95878342016572
930,15.0
931,30.0
2,1, 6, 1, 0, 3,30.00,45.00,Wednesday
7,17.65
18,0.0
19,0.0
20,0.0
21,0.0
22,0.0
1079,44.62042727793387
1080,45.10779339224832
1081,45.178052644893725
1082,45.564239561065904
1083,39.70014994523148
465,22.973114541874782
600,0.0
601,0.0
602,21.632768831849283
666,15.0
667,30.0
668,21.595395249276955
732,15.0
733,30.0
734,21.601703017373946
798,15.0
799,30.0
800,21.552833041147398
864,15.0
865,30.0
866,21.92219728378514
930,15.0
931,30.0
2,1, 6, 1, 0, 3,45.00,60.00,Wednesday
7,17.5
18,0.0
19,0.0
20,0.0
21,0.0
22,0.0
1079,45.41023552858958
1080,45.9499629663779
1081,46.02514111673195
1082,46.40015357683026
1083,40.275218098082675
465,22.833590158573685
600,0.0
601,0.0
602,21.584716960814752
666,15.0
667,30.0
668,21.54430202856376
732,15.0
733,30.0
734,21.55012114249016
798,15.0
799,30.0
800,21.502164786484464
864,15.0
865,30.0
866,21.886775168084842
930,15.0
931,30.0
2,1, 6, 1, 0, 4, 0.00,15.00,Wednesday
7,17.575
18,0.0
19,0.0
20,0.0
21,0.0
22,0.0
1079,46.007529325527265
1080,46.57301165630171
1081,46.63101707860949
1082,47.02132946799101
1083,40.80510874471023
465,22.698739335507835
600,0.0
601,0.0
602,21.545961197824973
666,15.0
667,30.0
668,21.50399356858316
732,15.0
733,30.0
734,21.510266200778297
798,15.0
799,30.0
800,21.462116840347456
864,15.0
865,30.0
866,21.85364512990728
930,15.0
931,30.0
2,1, 6, 1, 0, 4,15.00,30.00,Wednesday
7,17.65
18,0.0
19,0.0
20,0.0
21,0.0
22,0.0
1079,46.50393386744795
1080,47.08283833028641
1081,47.113625663059075
1082,47.52988949126908
1083,41.30413709294135
465,22.568953264845923
600,0.0
601,0.0
602,21.51613443342559
666,15.0
667,30.0
668,21.473849071612435
732,15.0
733,30.0
734,21.481503974813645
798,15.0
799,30.0
800,21.431996575435655
864,15.0
865,30.0
866,21.823265548286248
930,15.0
931,30.0
2,1, 6, 1, 0, 4,30.00,45.00,Wednesday
7,17.725
18,0.0
19,0.0
20,0.0
21,0.0
22,0.0
1079,46.93530974448532
1080,47.52077322389087
1081,47.52036444525373
1082,47.96834828642087
1083,41.767254723509176
465,22.44612085547231
600,0.0
601,0.0
602,21.491365130199206
666,15.0
667,30.0
668,21.449193300443945
732,15.0
733,30.0
734,21.458653473205576
798,15.0
799,30.0
800,21.407214490512114
864,15.0
865,30.0
866,21.795493322555572
930,15.0
931,30.0
2,1, 6, 1, 0, 4,45.00,60.00,Wednesday
7,17.8
18,0.0
19,0.0
20,0.0
21,0.0
22,0.0
1079,47.32268904093794
1080,47.91142345875339
1081,47.880459332860525
1082,48.360391669952705
1083,42.197224179052874
465,22.325952529360702
600,0.0
601,0.0
602,21.4692580986286
666,15.0
667,30.0
668,21.42727883037049
732,15.0
733,30.0
734,21.438516159054785
798,15.0
799,30.0
800,21.385132853953266
864,15.0
865,30.0
866,21.770089217623678
930,15.0
931,30.0
2,1, 6, 1, 0, 5, 0.00,15.00,Wednesday
7,18.1
18,0.0
19,0.0
20,0.0
21,0.0
22,0.0
1079,47.64237018627825
1080,48.274340688584026
1081,48.21131261314423
1082,48.72044956480867
1083,42.597192733912
465,22.203978851224456
600,0.0
601,0.0
602,21.451223900295936
666,15.0
667,30.0
668,21.407656422274975
732,15.0
733,30.0
734,21.420663678610094
798,15.0
799,30.0
800,21.36557638281485
864,15.0
865,30.0
866,21.747368347837245
930,15.0
931,30.0
2,1, 6, 1, 0, 5,15.00,30.00,Wednesday
7,18.4
18,0.0
19,0.0
20,0.0
21,0.0
22,0.0
1079,47.91602147492284
1080,48.60372391118913
1081,48.50931158368943
1082,49.04574336492236
1083,42.97018974751778
465,22.083596523159695
600,0.0
601,0.0
602,21.43726267697075
666,15.0
667,30.0
668,21.39071794931846
732,15.0
733,30.0
734,21.405458089646153
798,15.0
799,30.0
800,21.34889560674787
864,15.0
865,30.0
866,21.727193325017282
930,15.0
931,30.0
2,1, 6, 1, 0, 5,30.00,45.00,Wednesday
7,18.7
18,0.0
19,0.0
20,0.0
21,0.0
22,0.0
1079,48.15484225680575
1080,48.90239980608624
1081,48.777660167007475
1082,49.340721997187394
1083,43.322024325211686
465,21.969098750698763
600,0.0
601,0.0
602,21.42637791559227
666,15.0
667,30.0
668,21.376648885102515
732,15.0
733,30.0
734,21.393019128636666
798,15.0
799,30.0
800,21.33512743404979
864,15.0
865,30.0
866,21.70920251897047
930,15.0
931,30.0
2,1, 6, 1, 0, 5,45.00,60.00,Wednesday
7,19.0
18,0.0
19,0.0
20,0.0
21,0.0
22,0.0
1079,47.991783282193815
1080,48.685595727718535
1081,48.43606040132964
1082,49.21868257361648
1083,43.32115273183813
465,21.86517302624913
600,0.0
601,0.0
602,21.430052651382823
666,15.0
667,30.0
668,21.38250039119968
732,15.0
733,30.0
734,21.40405590124245
798,15.0
799,30.0
800,21.337226057341375
864,15.0
865,30.0
866,21.7011812707933
930,15.0
931,30.0
2,1, 6, 1, 0, 6, 0.00,15.00,Wednesday
7,19.5
18,0.0
19,0.0
20,0.0
21,0.0
22,0.0
1079,47.89281452276455
1080,48.65049399917046
1081,48.37910691512516
1082,49.17528385157649
1083,43.460309931199355
465,21.774076288491923
600,0.0
601,0.0
602,21.444108064968468
666,15.0
667,30.0
668,21.396158103308682
732,15.0
733,30.0
734,21.420920987614345
798,15.0
799,30.0
800,21.349240447140087
864,15.0
865,30.0
866,21.700813584027554
930,15.0
931,30.0
2,1, 6, 1, 0, 6,15.00,30.00,Wednesday
7,20.0
18,0.0
19,0.0
20,0.0
21,0.0
22,0.0
1079,47.78626460324386
1080,48.63860053481597
1081,48.35971437652435
1082,49.13397273985849
1083,43.57642028028606
465,21.692651451749974
600,0.0
601,0.0
602,21.45944417744863
666,15.0
667,30.0
668,21.406862683963215
732,15.0
733,30.0
734,21.4320354635469
798,15.0
799,30.0
800,21.36163469790477
864,15.0
865,30.0
866,21.702184332630896
930,15.0
931,30.0
2,1, 6, 1, 0, 6,30.00,45.00,Wednesday
7,20.5
18,0.0
19,0.0
20,0.0
21,0.0
22,0.0
1079,46.426956061931975
1080,46.72780000505693
1081,46.111563734621406
1082,47.849429053103606
1083,42.49320773355916
465,21.634575879330665
600,0.0
601,0.0
602,21.51336555795453
666,15.0
667,30.0
668,21.478542367469572
732,15.0
733,30.0
734,21.512973895224384
798,15.0
799,30.0
800,21.4135964578318
864,15.0
865,30.0
866,21.733051676539695
930,15.0
931,30.0
2,1, 6, 1, 0, 6,45.00,60.00,Wednesday
7,21.0
18,0.0
19,0.0
20,0.0
21,0.0
22,0.0
1079,44.63000454163564
1080,44.26735772338582
1081,43.40421541532625
1082,46.07784873044206
1083,41.16661820456009
465,21.608585431852607
600,0.0
601,0.0
602,21.616933269680192
666,15.0
667,30.0
668,21.621031642694117
732,15.0
733,30.0
734,21.671291017013257
798,15.0
799,30.0
800,21.518006980862136
864,15.0
865,30.0
866,21.80614286042172
930,15.0
931,30.0
2,1, 6, 1, 0, 7, 0.00,15.00,Wednesday
7,20.65
18,0.0
19,0.0
20,0.0
21,0.0
22,0.0
1079,42.27789899875736
1080,40.8286314227553
1081,39.80344704439996
1082,43.657238323318566
1083,39.20981590343523
465,21.613252047226062
600,0.0
601,0.0
602,21.75610285962125
666,15.0
667,30.0
668,21.824793824571277
732,15.0
733,30.0
734,21.888909155367518
798,15.0
799,30.0
800,21.660900287221157
864,15.0
865,30.0
866,21.91580905742184
930,15.0
931,30.0
2,1, 6, 1, 0, 7,15.00,30.00,Wednesday
7,20.3
18,0.0
19,0.0
20,0.0
21,0.0
22,0.0
1079,39.823602050372365
1080,37.25752492660459
1081,36.24901751997445
1082,41.07660314843188
1083,37.171121577934734
465,21.64284459699833
600,0.0
601,0.0
602,21.910992882745628
666,15.0
667,30.0
668,22.056896100288444
732,15.0
733,30.0
734,22.125426646856813
798,15.0
799,30.0
800,21.82156338172389
864,15.0
865,30.0
866,22.04580697953516
930,15.0
931,30.0
2,1, 6, 1, 0, 7,30.00,45.00,Wednesday
7,19.950000000000003
18,0.0
19,0.0
20,0.0
21,0.0
22,0.0
1079,37.447050621445214
1080,33.69043126561429
1081,32.8442812040299
1082,38.55202477106002
1083,35.15110243084095
465,21.692678249031474
600,0.0
601,0.0
602,22.065130043803077
666,15.0
667,30.0
668,22.295939549874152
732,15.0
733,30.0
734,22.357920410502857
798,15.0
799,30.0
800,21.982393668612673
864,15.0
865,30.0
866,22.17984528065474
930,15.0
931,30.0
2,1, 6, 1, 0, 7,45.00,60.00,Wednesday
7,19.6
18,0.0
19,0.0
20,0.0
21,0.0
22,0.0
1079,34.71149202182542
1080,29.620068143355212
1081,29.063689747520726
1082,35.70131109871495
1083,32.79701181396058
465,21.771613905864086
600,0.0
601,0.0
602,22.229166023075635
666,15.0
667,30.0
668,22.565304686243394
732,15.0
733,30.0
734,22.609850904832644
798,15.0
799,30.0
800,22.151300737983302
864,15.0
865,30.0
866,22.32227689357579
930,15.0
931,30.0
2,1, 6, 1, 0, 8, 0.00,15.00,Wednesday
7,20.325000000000003
18,0.0
19,0.0
20,0.0
21,0.0
22,0.0
1079,32.3602225063003
1080,26.386405325684308
1081,26.185156620713926
1082,33.32935767857376
1083,31.069811738576405
465,21.86570344559535
600,0.0
601,0.0
602,22.34887572858348
666,15.0
667,30.0
668,22.761055443118046
732,15.0
733,30.0
734,22.781258967522056
798,15.0
799,30.0
800,22.271514164554034
864,15.0
865,30.0
866,22.40906538599991
930,15.0
931,30.0
2,1, 6, 1, 0, 8,15.00,30.00,Wednesday
7,21.05
18,0.0
19,0.0
20,0.0
21,0.0
22,0.0
1079,29.033756869045078
1080,21.85383025697068
1081,22.152774135562936
1082,29.97585402274234
1083,28.473031339277725
465,22.023796015338974
600,0.0
601,0.0
602,22.605456810523528
666,15.0
667,30.0
668,23.178112526722444
732,15.0
733,30.0
734,23.153336081210767
798,15.0
799,30.0
800,22.526488026353753
864,15.0
865,30.0
866,22.61613087583256
930,15.0
931,30.0
2,1, 6, 1, 0, 8,30.00,45.00,Wednesday
7,21.775
18,0.0
19,0.0
20,0.0
21,0.0
22,0.0
1079,17.802234415932574
1080,13.037595848897553
1081,12.983350371729884
1082,19.45659898561314
1083,24.947512486534833
465,22.700613001159528
600,0.0
601,0.0
602,24.11852799136979
666,26.0
667,27.0
668,24.56088108634798
732,26.0
733,27.0
734,24.62038948681108
798,26.0
799,27.0
800,23.87559992065081
864,26.0
865,27.0
866,22.999164277969946
930,26.0
931,27.0
2,1, 6, 1, 0, 8,45.00,60.00,Wednesday
7,22.5
18,0.0
19,0.0
20,0.0
21,0.0
22,0.0
1079,12.30284903363463
1080,9.020098738581183
1081,8.925809897497686
1082,14.231889606303469
1083,22.202353270300648
465,23.29628862235517
600,0.0
601,0.0
602,24.919242441032257
666,26.0
667,27.0
668,25.268986799507317
732,26.0
733,27.0
734,25.371435148613436
798,26.0
799,27.0
800,24.559329937857314
864,26.0
865,27.0
866,23.234477460258567
930,26.0
931,27.0
2,1, 6, 1, 0, 9, 0.00,15.00,Wednesday
7,23.25
18,11.0
19,5.0
20,11.0
21,5.0
22,20.0
1079,6.39711566250169
1080,5.178882908245981
1081,5.377379966899355
1082,6.43510055015318
1083,11.982534532078006
465,24.108430759916423
600,0.0
601,0.0
602,26.14347170507029
666,26.0
667,27.0
668,26.512289325984575
732,26.0
733,27.0
734,26.39400068808514
798,26.0
799,27.0
800,26.156930112688272
864,26.0
865,27.0
866,24.5555518519898
930,26.0
931,27.0
2,1, 6, 1, 0, 9,15.00,30.00,Wednesday
7,24.0
18,11.0
19,5.0
20,11.0
21,5.0
22,20.0
1079,5.4578490145525365
1080,5.062560715375184
1081,5.000570652443088
1082,5.509999469354611
1083,8.924974909286846
465,24.60191179650873
600,0.0
601,0.0
602,26.341482504721267
666,25.999999999999996
667,27.0
668,26.853729010743795
732,25.999999999999996
733,27.0
734,26.760274216626847
798,25.999999999999996
799,27.0
800,26.290205466705714
864,25.999999999999996
865,27.0
866,25.081960277958203
930,25.999999999999996
931,27.0
2,1, 6, 1, 0, 9,30.00,45.00,Wednesday
7,24.75
18,11.0
19,5.0
20,11.0
21,5.0
22,20.0
1079,5.056087362594397
1080,5.381778336946837
1081,5.169928645212593
1082,5.083041052988889
1083,7.36363241488408
465,25.092039920776507
600,0.0
601,0.0
602,26.588250325760164
666,26.0
667,27.0
668,26.98872802551654
732,26.0
733,27.0
734,26.954040949799122
798,26.0
799,27.0
800,26.520203269583465
864,26.0
865,27.0
866,25.48062648037165
930,26.0
931,27.0
2,1, 6, 1, 0, 9,45.00,60.00,Wednesday
7,25.5
18,11.0
19,5.0
20,11.0
21,5.0
22,20.0
1079,5.023169892769914
1080,5.675542820625509
1081,5.385887876276911
1082,5.007361870824369
1083,5.26089804589644
465,25.578908298053115
600,0.0
601,0.0
602,26.82170494698022
666,26.0
667,27.0
668,26.998718656876715
732,26.0
733,27.0
734,26.99875370308063
798,26.0
799,27.0
800,26.72657878793342
864,26.0
865,27.0
866,26.524912368548684
930,26.0
931,27.0
2,1, 6, 1, 0,10, 0.00,15.00,Wednesday
7,25.8
18,11.0
19,5.0
20,11.0
21,5.0
22,20.0
1079,5.284187546912392
1080,6.019849174022099
1081,5.631827195119243
1082,5.3020286232661675
1083,5.018111512086762
465,26.297534900857475
600,0.0
601,0.0
602,26.996184342658086
666,26.0
667,27.0
668,26.99800829075568
732,26.0
733,27.0
734,26.998254032408703
798,26.0
799,27.0
800,26.995529274396304
864,26.0
865,27.0
866,26.991657310741836
930,26.0
931,27.0
2,1, 6, 1, 0,10,15.00,30.00,Wednesday
7,26.1
18,11.0
19,5.0
20,11.0
21,5.0
22,20.0
1079,5.403998349858995
1080,6.200321624265058
1081,5.743247656346767
1082,5.445511025674989
1083,5.053447240873638
465,26.708052376220472
600,0.0
601,0.0
602,26.99764500553721
666,26.0
667,27.0
668,26.997020549099098
732,26.0
733,27.0
734,26.997419619405733
798,26.0
799,27.0
800,26.9975729715057
864,26.0
865,27.0
866,26.99810846264395
930,26.0
931,27.0
2,1, 6, 1, 0,10,30.00,45.00,Wednesday
7,26.4
18,11.0
19,5.0
20,11.0
21,5.0
22,20.0
1079,5.541962571420939
1080,6.327873268402541
1081,5.795338769350295
1082,5.586497809905836
1083,5.1161725092384955
465,27.263490950257758
600,0.0
601,0.0
602,26.997509076671804
666,26.0
667,27.0
668,26.99704480852073
732,26.0
733,27.0
734,26.997347246482715
798,26.0
799,27.0
800,26.997444482131854
864,26.0
865,27.0
866,26.997901928774994
930,26.0
931,27.0
2,1, 6, 1, 0,10,45.00,60.00,Wednesday
7,26.7
18,11.0
19,5.0
20,11.0
21,5.0
22,20.0
1079,5.640753531689597
1080,6.398574598696186
1081,5.833763423014304
1082,5.70318552620499
1083,5.1787906809900335
465,27.680423149541916
600,0.0
601,0.0
602,26.997236603261126
666,26.0
667,27.0
668,26.996986634496444
732,26.0
733,27.0
734,26.997210521837463
798,26.0
799,27.0
800,26.997143255734876
864,26.0
865,27.0
866,26.99750861835635
930,26.0
931,27.0
2,1, 6, 1, 0,11, 0.00,15.00,Wednesday
7,26.974999999999998
18,11.0
19,5.0
20,11.0
21,5.0
22,20.0
1079,5.744569312217166
1080,6.4720406087301825
1081,5.884141270798125
1082,5.805498559609305
1083,5.25047612552126
465,28.141541220069904
600,0.0
601,0.0
602,26.997164275117633
666,26.0
667,27.0
668,26.997011040745292
732,26.0
733,27.0
734,26.99719220730989
798,26.0
799,27.0
800,26.99706503005369
864,26.0
865,27.0
866,26.997387105381492
930,26.0
931,27.0
2,1, 6, 1, 0,11,15.00,30.00,Wednesday
7,27.25
18,11.0
19,5.0
20,11.0
21,5.0
22,20.0
1079,5.792102553132054
1080,6.492155341464013
1081,5.896537424083533
1082,5.860193974784309
1083,5.3032672882610825
465,28.55465265886596
600,0.0
601,0.0
602,26.997106517004546
666,26.0
667,27.0
668,26.99704214539105
732,26.0
733,27.0
734,26.997173572742376
798,26.0
799,27.0
800,26.997004184795976
864,26.0
865,27.0
866,26.99727274496994
930,26.0
931,27.0
2,1, 6, 1, 0,11,30.00,45.00,Wednesday
7,27.525000000000002
18,11.0
19,5.0
20,11.0
21,5.0
22,20.0
1079,5.828810289159691
1080,6.474823594964391
1081,5.903061688021097
1082,5.902622266530912
1083,5.341699066887301
465,28.930464514836828
600,0.0
601,0.0
602,26.997078759336326
666,26.0
667,27.0
668,26.997080371420466
732,26.0
733,27.0
734,26.99715951387924
798,26.0
799,27.0
800,26.99697596074423
864,26.0
865,27.0
866,26.997187080177312
930,26.0
931,27.0
2,1, 6, 1, 0,11,45.00,60.00,Wednesday
7,27.8
18,11.0
19,5.0
20,11.0
21,5.0
22,20.0
1079,5.861130354805965
1080,6.442840300730225
1081,5.913348808419343
1082,5.925862819356553
1083,5.379871956206642
465,29.286320375445456
600,0.0
601,0.0
602,26.99706285854638
666,26.0
667,27.0
668,26.997111885367154
732,26.0
733,27.0
734,26.99714440705239
798,26.0
799,27.0
800,26.99696154334538
864,26.0
865,27.0
866,26.997120174405747
930,26.0
931,27.0
2,1, 6, 1, 0,12, 0.00,15.00,Wednesday
7,28.1
18,8.8
19,4.0
20,8.8
21,4.0
22,16.0
1079,5.821828447053193
1080,6.325257436611508
1081,5.858531623051917
1082,5.8821467170293005
1083,5.363289970793787
465,29.612114269530128
600,0.0
601,0.0
602,26.997313759373846
666,26.0
667,27.0
668,26.997376281353674
732,26.0
733,27.0
734,26.9973866454999
798,26.0
799,27.0
800,26.99722855503916
864,26.0
865,27.0
866,26.997346779159397
930,26.0
931,27.0
2,1, 6, 1, 0,12,15.00,30.00,Wednesday
7,28.4
18,8.8
19,4.0
20,8.8
21,4.0
22,16.0
1079,5.796307848194047
1080,6.227887868437207
1081,5.820503244191954
1082,5.852725489182319
1083,5.356396555741455
465,29.915434347455786
600,0.0
601,0.0
602,26.99738730261159
666,26.0
667,27.0
668,26.997498571959007
732,26.0
733,27.0
734,26.997462395302918
798,26.0
799,27.0
800,26.99730819047059
864,26.0
865,27.0
866,26.997377072412363
930,26.0
931,27.0
2,1, 6, 1, 0,12,30.00,45.00,Wednesday
7,28.7
18,8.8
19,4.0
20,8.8
21,4.0
22,16.0
1079,5.768283999190132
1080,6.128433232143337
1081,5.7826546629760855
1082,5.820433812279475
1083,5.342741059354324
465,30.187515774232217
600,0.0
601,0.0
602,26.995581493293457
666,26.0
667,27.0
668,26.995934621138343
732,26.0
733,27.0
734,26.995736412781802
798,26.0
799,27.0
800,26.995488493159236
864,26.0
865,27.0
866,26.99535204335989
930,26.0
931,27.0
2,1, 6, 1, 0,12,45.00,60.00,Wednesday
7,29.0
18,8.8
19,4.0
20,8.8
21,4.0
22,16.0
1079,5.74797445413175
1080,6.0399055145194325
1081,5.755051829689393
1082,5.796023547812027
1083,5.3312576808695695
465,30.393762120689
600,0.0
601,0.0
602,26.995435986955492
666,26.0
667,27.0
668,26.995841549723277
732,26.0
733,27.0
734,26.995591917793597
798,26.0
799,27.0
800,26.995346231944875
864,26.0
865,27.0
866,26.99516306438564
930,26.0
931,27.0
2,1, 6, 1, 0,13, 0.00,15.00,Wednesday
7,29.125
18,4.4
19,2.0
20,4.4
21,2.0
22,8.0
1079,5.606656467713577
1080,5.803970124861834
1081,5.60216176409331
1082,5.641096324109256
1083,5.2428097801452225
465,30.580098553370224
600,0.0
601,0.0
602,26.996369382999497
666,26.0
667,27.0
668,26.99671193556444
732,26.0
733,27.0
734,26.996493844213006
798,26.0
799,27.0
800,26.9963196772257
864,26.0
865,27.0
866,26.996172856935672
930,26.0
931,27.0
2,1, 6, 1, 0,13,15.00,30.00,Wednesday
7,29.25
18,4.4
19,2.0
20,4.4
21,2.0
22,8.0
1079,5.548780074602789
1080,5.681322161988064
1081,5.536320328978462
1082,5.573451549712885
1083,5.213192753346348
465,30.797067599251037
600,0.0
601,0.0
602,26.996835495491197
666,26.0
667,27.0
668,26.997237096575017
732,26.0
733,27.0
734,26.996952632985273
798,26.0
799,27.0
800,26.99680269613296
864,26.0
865,27.0
866,26.996566343515884
930,26.0
931,27.0
2,1, 6, 1, 0,13,30.00,45.00,Wednesday
7,29.375
18,4.4
19,2.0
20,4.4
21,2.0
22,8.0
1079,5.508334680135448
1080,5.600932092782202
1081,5.488944713314623
1082,5.525623963584266
1083,5.188471503842592
465,31.01713801396707
600,0.0
601,0.0
602,26.997250157638586
666,26.0
667,27.0
668,26.99767184202845
732,26.0
733,27.0
734,26.99735763318778
798,26.0
799,27.0
800,26.997226764079596
864,26.0
865,27.0
866,26.996920351869495
930,26.0
931,27.0
2,1, 6, 1, 0,13,45.00,60.00,Wednesday
7,29.5
18,4.4
19,2.0
20,4.4
21,2.0
22,8.0
1079,5.496865718353234
1080,5.574481148370168
1081,5.470875705261463
1082,5.529313662050242
1083,5.17927744970855
465,31.213295069163955
600,0.0
601,0.0
602,26.99759397608068
666,26.0
667,27.0
668,26.99799075658616
732,26.0
733,27.0
734,26.997688943673037
798,26.0
799,27.0
800,26.99754859694214
864,26.0
865,27.0
866,26.99722723867855
930,26.0
931,27.0
2,1, 6, 1, 0,14, 0.00,15.00,Wednesday
7,29.6
18,8.8
19,4.0
20,8.8
21,4.0
22,16.0
1079,5.615077537160701
1080,5.681371653914255
1081,5.5721484540614625
1082,5.69229398823542
1083,5.23939060027574
465,31.318940937520548
600,0.0
601,0.0
602,26.99752094855795
666,26.0
667,27.0
668,26.997939523799534
732,26.0
733,27.0
734,26.997606344619516
798,26.0
799,27.0
800,26.997419734503676
864,26.0
865,27.0
866,26.997003831844545
930,26.0
931,27.0
2,1, 6, 1, 0,14,15.00,30.00,Wednesday
7,29.7
18,8.8
19,4.0
20,8.8
21,4.0
22,16.0
1079,5.70684150396788
1080,5.762440985478918
1081,5.662919452791783
1082,5.839008418920869
1083,5.280788904561504
465,31.433463283782967
600,0.0
601,0.0
602,26.997538342131687
666,26.0
667,27.0
668,26.997883150545146
732,26.0
733,27.0
734,26.997609834657197
798,26.0
799,27.0
800,26.99738612973775
864,26.0
865,27.0
866,26.997045921764514
930,26.0
931,27.0
2,1, 6, 1, 0,14,30.00,45.00,Wednesday
7,29.799999999999997
18,8.8
19,4.0
20,8.8
21,4.0
22,16.0
1079,5.803051096805888
1080,5.8449543773106285
1081,5.746523419661358
1082,5.997117260446913
1083,5.334959558825076
465,31.570526586208302
600,0.0
601,0.0
602,26.99745484041742
666,26.0
667,27.0
668,26.997716592860808
732,26.0
733,27.0
734,26.997515897826858
798,26.0
799,27.0
800,26.997254463148664
864,26.0
865,27.0
866,26.997009513947837
930,26.0
931,27.0
2,1, 6, 1, 0,14,45.00,60.00,Wednesday
7,29.9
18,8.8
19,4.0
20,8.8
21,4.0
22,16.0
1079,5.898780955485691
1080,5.9236572472619
1081,5.8280332707836635
1082,6.159222336566444
1083,5.384682744265149
465,31.702365154458736
600,0.0
601,0.0
602,26.997348337375136
666,26.0
667,27.0
668,26.99754023990597
732,26.0
733,27.0
734,26.99740153522944
798,26.0
799,27.0
800,26.997109966330957
864,26.0
865,27.0
866,26.99694341783959
930,26.0
931,27.0
2,1, 6, 1, 0,15, 0.00,15.00,Wednesday
7,30.025
18,11.0
19,5.0
20,11.0
21,5.0
22,20.0
1079,6.083731078920081
1080,6.094276843142708
1081,5.997190609783033
1082,6.433441179324234
1083,5.487314189348439
465,31.87788359884832
600,0.0
601,0.0
602,26.9972235170135
666,26.0
667,27.0
668,26.99735550565125
732,26.0
733,27.0
734,26.997267500786343
798,26.0
799,27.0
800,26.99695255370901
864,26.0
865,27.0
866,26.996844286739446
930,26.0
931,27.0
2,1, 6, 1, 0,15,15.00,30.00,Wednesday
7,30.15
18,11.0
19,5.0
20,11.0
21,5.0
22,20.0
1079,6.239492276559957
1080,6.2328849872955345
1081,6.136687435167417
1082,6.677509311079632
1083,5.579222587631989
465,32.00259413112741
600,0.0
601,0.0
602,26.99705615205934
666,26.0
667,27.0
668,26.99713953429393
732,26.0
733,27.0
734,26.997094014223254
798,26.0
799,27.0
800,26.996762771795787
864,26.0
865,27.0
866,26.996702264656292
930,26.0
931,27.0
2,1, 6, 1, 0,15,30.00,45.00,Wednesday
7,30.275
18,11.0
19,5.0
20,11.0
21,5.0
22,20.0
1079,6.389788521815348
1080,6.3662896774820155
1081,6.271000443540743
1082,6.938952182957195
1083,5.670160197609292
465,32.08837354882271
600,0.0
601,0.0
602,26.996868947072418
666,26.0
667,27.0
668,26.996911492472616
732,26.0
733,27.0
734,26.996901984332826
798,26.0
799,27.0
800,26.996557565198692
864,26.0
865,27.0
866,26.996530369701357
930,26.0
931,27.0
2,1, 6, 1, 0,15,45.00,60.00,Wednesday
7,30.4
18,11.0
19,5.0
20,11.0
21,5.0
22,20.0
1079,6.525207489918074
1080,6.486188214520354
1081,6.391556823321281
1082,7.172230632638289
1083,5.767409283266062
465,32.1635739188711
600,0.0
601,0.0
602,26.99671299596344
666,26.0
667,27.0
668,26.996721814810527
732,26.0
733,27.0
734,26.996740367279006
798,26.0
799,27.0
800,26.99639543431174
864,26.0
865,27.0
866,26.996374543358773
930,26.0
931,27.0
2,1, 6, 1, 0,16, 0.00,15.00,Wednesday
7,30.275
18,11.0
19,5.0
20,11.0
21,5.0
22,20.0
1079,6.610355457802484
1080,6.554734898919406
1081,6.459503342548942
1082,7.34114935296229
1083,5.83905910196016
465,32.29563902337395
600,0.0
601,0.0
602,26.996678449631588
666,26.0
667,27.0
668,26.996663729012052
732,26.0
733,27.0
734,26.99671339532351
798,26.0
799,27.0
800,26.996340514766647
864,26.0
865,27.0
866,26.996394467878858
930,26.0
931,27.0
2,1, 6, 1, 0,16,15.00,30.00,Wednesday
7,30.15
18,11.0
19,5.0
20,11.0
21,5.0
22,20.0
1079,6.694876049718658
1080,6.624557963645927
1081,6.5300840478603845
1082,7.5091802923952
1083,5.916840687605102
465,32.3915135477027
600,0.0
601,0.0
602,26.996533034703962
666,26.0
667,27.0
668,26.996500342224937
732,26.0
733,27.0
734,26.996566263029685
798,26.0
799,27.0
800,26.99620029722459
864,26.0
865,27.0