Program Version,EnergyPlus, Version 23.2.0-7636e6b3e9, YMD=2026.04.10 15:09
1,5,Environment Title[],Latitude[deg],Longitude[deg],Time Zone[],Elevation[m]
2,8,Day of Simulation[],Month[],Day of Month[],DST Indicator[1=yes 0=no],Hour[],StartMinute[],EndMinute[],DayType
3,5,Cumulative Day of Simulation[],Month[],Day of Month[],DST Indicator[1=yes 0=no],DayType  ! When Daily Meters Requested
4,2,Cumulative Days of Simulation[],Month[]  ! When Monthly Meters Requested
5,1,Cumulative Days of Simulation[] ! When Run Period Meters Requested
6,1,Calendar Year of Simulation[] ! When Annual Meters Requested
24,1,Electricity:Facility [J] !TimeStep
36,1,Electricity:Building [J] !TimeStep
72,1,InteriorLights:Electricity [J] !TimeStep
1207,1,Electricity:HVAC [J] !TimeStep
1270,1,Electricity:Plant [J] !TimeStep
29,11,Electricity:Facility [J] !RunPeriod [Value,Min,Month,Day,Hour,Minute,Max,Month,Day,Hour,Minute]
41,11,Electricity:Building [J] !RunPeriod [Value,Min,Month,Day,Hour,Minute,Max,Month,Day,Hour,Minute]
77,11,InteriorLights:Electricity [J] !RunPeriod [Value,Min,Month,Day,Hour,Minute,Max,Month,Day,Hour,Minute]
1212,11,Electricity:HVAC [J] !RunPeriod [Value,Min,Month,Day,Hour,Minute,Max,Month,Day,Hour,Minute]
1275,11,Electricity:Plant [J] !RunPeriod [Value,Min,Month,Day,Hour,Minute,Max,Month,Day,Hour,Minute]
End of Data Dictionary
1,RUN PERIOD 2,  36.60, 117.05,   8.00, 215.00
2,1, 6, 1, 0, 1, 0.00,15.00,Wednesday
24,4661883.950440934
36,427500.0
72,337500.0
1207,592840.2253004119
1270,3641543.725140522
2,1, 6, 1, 0, 1,15.00,30.00,Wednesday
24,4660383.999575077
36,427500.0
72,337500.0
1207,592840.2253004119
1270,3640043.7742746645
2,1, 6, 1, 0, 1,30.00,45.00,Wednesday
24,4658681.355488433
36,427500.0
72,337500.0
1207,592840.2253004119
1270,3638341.1301880204
2,1, 6, 1, 0, 1,45.00,60.00,Wednesday
24,4656835.629523086
36,427500.0
72,337500.0
1207,592840.2253004119
1270,3636495.4042226737
2,1, 6, 1, 0, 2, 0.00,15.00,Wednesday
24,4656779.232387009
36,427500.0
72,337500.0
1207,592840.2253004119
1270,3636439.007086597
2,1, 6, 1, 0, 2,15.00,30.00,Wednesday
24,4656719.258883436
36,427500.0
72,337500.0
1207,592840.2253004119
1270,3636379.033583024
2,1, 6, 1, 0, 2,30.00,45.00,Wednesday
24,4656655.776928991
36,427500.0
72,337500.0
1207,592840.2253004119
1270,3636315.551628579
2,1, 6, 1, 0, 2,45.00,60.00,Wednesday
24,4656588.8275676705
36,427500.0
72,337500.0
1207,592840.2253004119
1270,3636248.602267258
2,1, 6, 1, 0, 3, 0.00,15.00,Wednesday
24,4656337.966114882
36,427500.0
72,337500.0
1207,592840.2253004119
1270,3635997.74081447
2,1, 6, 1, 0, 3,15.00,30.00,Wednesday
24,4656086.894459372
36,427500.0
72,337500.0
1207,592840.2253004119
1270,3635746.6691589598
2,1, 6, 1, 0, 3,30.00,45.00,Wednesday
24,4655835.7161594825
36,427500.0
72,337500.0
1207,592840.2253004119
1270,3635495.4908590703
2,1, 6, 1, 0, 3,45.00,60.00,Wednesday
24,4655584.481778615
36,427500.0
72,337500.0
1207,592840.2253004119
1270,3635244.2564782025
2,1, 6, 1, 0, 4, 0.00,15.00,Wednesday
24,4655316.583482523
36,427500.0
72,337500.0
1207,592840.2253004119
1270,3634976.3581821113
2,1, 6, 1, 0, 4,15.00,30.00,Wednesday
24,4655046.563134102
36,427500.0
72,337500.0
1207,592840.2253004119
1270,3634706.33783369
2,1, 6, 1, 0, 4,30.00,45.00,Wednesday
24,4654774.461661026
36,427500.0
72,337500.0
1207,592840.2253004119
1270,3634434.2363606133
2,1, 6, 1, 0, 4,45.00,60.00,Wednesday
24,4654500.35447561
36,427500.0
72,337500.0
1207,592840.2253004119
1270,3634160.129175198
2,1, 6, 1, 0, 5, 0.00,15.00,Wednesday
24,4654356.596382825
36,427500.0
72,337500.0
1207,592840.2253004119
1270,3634016.3710824125
2,1, 6, 1, 0, 5,15.00,30.00,Wednesday
24,4654183.581400552
36,427500.0
72,337500.0
1207,592840.2253004119
1270,3633843.3561001397
2,1, 6, 1, 0, 5,30.00,45.00,Wednesday
24,4653980.951485281
36,427500.0
72,337500.0
1207,592840.2253004119
1270,3633640.7261848687
2,1, 6, 1, 0, 5,45.00,60.00,Wednesday
24,4653748.384529741
36,427500.0
72,337500.0
1207,592840.2253004119
1270,3633408.159229328
2,1, 6, 1, 0, 6, 0.00,15.00,Wednesday
24,4653785.452504678
36,427500.0
72,337500.0
1207,592840.2253004119
1270,3633445.227204265
2,1, 6, 1, 0, 6,15.00,30.00,Wednesday
24,4653760.759711962
36,427500.0
72,337500.0
1207,592840.2253004119
1270,3633420.53441155
2,1, 6, 1, 0, 6,30.00,45.00,Wednesday
24,4653671.662452876
36,427500.0
72,337500.0
1207,592840.2253004119
1270,3633331.437152463
2,1, 6, 1, 0, 6,45.00,60.00,Wednesday
24,4653515.743082496
36,427500.0
72,337500.0
1207,592840.2253004119
1270,3633175.5177820837
2,1, 6, 1, 0, 7, 0.00,15.00,Wednesday
24,4653587.062590277
36,427500.0
72,337500.0
1207,592840.2253004119
1270,3633246.8372898647
2,1, 6, 1, 0, 7,15.00,30.00,Wednesday
24,4653627.049362326
36,427500.0
72,337500.0
1207,592840.2253004119
1270,3633286.824061914
2,1, 6, 1, 0, 7,30.00,45.00,Wednesday
24,4653636.604782116
36,427500.0
72,337500.0
1207,592840.2253004119
1270,3633296.3794817035
2,1, 6, 1, 0, 7,45.00,60.00,Wednesday
24,4653616.564814704
36,427500.0
72,337500.0
1207,592840.2253004119
1270,3633276.339514291
2,1, 6, 1, 0, 8, 0.00,15.00,Wednesday
24,4653913.002012175
36,427500.0
72,337500.0
1207,592840.2253004119
1270,3633572.776711762
2,1, 6, 1, 0, 8,15.00,30.00,Wednesday
24,4654105.007693224
36,427500.0
72,337500.0
1207,592840.2253004119
1270,3633764.7823928115
2,1, 6, 1, 0, 8,30.00,45.00,Wednesday
24,4654183.758154155
36,427500.0
72,337500.0
1207,592840.2253004119
1270,3633843.5328537426
2,1, 6, 1, 0, 8,45.00,60.00,Wednesday
24,13818697.423314128
36,427500.0
72,337500.0
1207,872104.2746029899
1270,12519093.148711137
2,1, 6, 1, 0, 9, 0.00,15.00,Wednesday
24,13802278.588024484
36,7875000.0
72,6075000.0
1207,615604.8315445794
1270,5311673.756479905
2,1, 6, 1, 0, 9,15.00,30.00,Wednesday
24,12105637.332069654
36,7875000.0
72,6075000.0
1207,596072.0695442806
1270,3634565.2625253745
2,1, 6, 1, 0, 9,30.00,45.00,Wednesday
24,12113641.614510037
36,7875000.0
72,6075000.0
1207,603837.0104741367
1270,3634804.6040359
2,1, 6, 1, 0, 9,45.00,60.00,Wednesday
24,12122936.986362277
36,7875000.0
72,6075000.0
1207,612999.9658244604
1270,3634937.020537816
2,1, 6, 1, 0,10, 0.00,15.00,Wednesday
24,14751481.324864637
36,10462500.0
72,6412500.0
1207,654025.2288016872
1270,3634956.0960629513
2,1, 6, 1, 0,10,15.00,30.00,Wednesday
24,14758486.980602147
36,10462500.0
72,6412500.0
1207,661030.7670983465
1270,3634956.2135038
2,1, 6, 1, 0,10,30.00,45.00,Wednesday
24,14763931.159406317
36,10462500.0
72,6412500.0
1207,666494.2508965163
1270,3634936.9085098
2,1, 6, 1, 0,10,45.00,60.00,Wednesday
24,14835957.776664944
36,10462500.0
72,6412500.0
1207,670310.9658951074
1270,3703146.8107698383
2,1, 6, 1, 0,11, 0.00,15.00,Wednesday
24,15267823.523986373
36,10800000.0
72,6750000.0
1207,674642.3422296353
1270,3793181.1817567362
2,1, 6, 1, 0,11,15.00,30.00,Wednesday
24,15352603.248335265
36,10800000.0
72,6750000.0
1207,678127.2843106365
1270,3874475.964024627
2,1, 6, 1, 0,11,30.00,45.00,Wednesday
24,15427754.752507616
36,10800000.0
72,6750000.0
1207,680812.298709107
1270,3946942.4537985097
2,1, 6, 1, 0,11,45.00,60.00,Wednesday
24,15502359.822379649
36,10800000.0
72,6750000.0
1207,683403.5024967657
1270,4018956.319882882
2,1, 6, 1, 0,12, 0.00,15.00,Wednesday
24,15071400.291847283
36,10462500.0
72,6412500.0
1207,671959.0675112302
1270,3936941.2243360523
2,1, 6, 1, 0,12,15.00,30.00,Wednesday
24,15119229.831268204
36,10462500.0
72,6412500.0
1207,672646.474951053
1270,3984083.3563171513
2,1, 6, 1, 0,12,30.00,45.00,Wednesday
24,15177891.243951607
36,10462500.0
72,6412500.0
1207,673717.1007364013
1270,4041674.143215207
2,1, 6, 1, 0,12,45.00,60.00,Wednesday
24,15236867.51911917
36,10462500.0
72,6412500.0
1207,674811.4804162893
1270,4099556.0387028805
2,1, 6, 1, 0,13, 0.00,15.00,Wednesday
24,13892639.027749762
36,9450000.0
72,5400000.0
1207,650508.0239441355
1270,3792131.0038056266
2,1, 6, 1, 0,13,15.00,30.00,Wednesday
24,13866605.000495862
36,9450000.0
72,5400000.0
1207,648663.8574352902
1270,3767941.1430605724
2,1, 6, 1, 0,13,30.00,45.00,Wednesday
24,13881486.149334148
36,9450000.0
72,5400000.0
1207,648546.0541847117
1270,3782940.095149435
2,1, 6, 1, 0,13,45.00,60.00,Wednesday
24,13911285.159051765
36,9450000.0
72,5400000.0
1207,649313.5502520853
1270,3811971.6087996787
2,1, 6, 1, 0,14, 0.00,15.00,Wednesday
24,14977084.21546361
36,10125000.0
72,6075000.0
1207,674272.1140006145
1270,4177812.1014629975
2,1, 6, 1, 0,14,15.00,30.00,Wednesday
24,15066219.608391166
36,10125000.0
72,6075000.0
1207,678845.9372628005
1270,4262373.671128367
2,1, 6, 1, 0,14,30.00,45.00,Wednesday
24,15116570.416145023
36,10125000.0
72,6075000.0
1207,681354.3763918609
1270,4310216.039753163
2,1, 6, 1, 0,14,45.00,60.00,Wednesday
24,15165572.53797191
36,10125000.0
72,6075000.0
1207,683800.839127122
1270,4356771.698844789
2,1, 6, 1, 0,15, 0.00,15.00,Wednesday
24,15507775.005032117
36,10350000.0
72,6750000.0
1207,691460.3421196232
1270,4466314.662912493
2,1, 6, 1, 0,15,15.00,30.00,Wednesday
24,15583824.201134685
36,10350000.0
72,6750000.0
1207,695705.9294367072
1270,4538118.271697978
2,1, 6, 1, 0,15,30.00,45.00,Wednesday
24,15648366.567841066
36,10350000.0
72,6750000.0
1207,699112.837969713
1270,4599253.729871354
2,1, 6, 1, 0,15,45.00,60.00,Wednesday
24,15710045.690828508
36,10350000.0
72,6750000.0
1207,702246.8799008438
1270,4657798.810927664
2,1, 6, 1, 0,16, 0.00,15.00,Wednesday
24,15125650.58307688
36,9900000.0
72,6750000.0
1207,692475.6608256779
1270,4533174.922251201
2,1, 6, 1, 0,16,15.00,30.00,Wednesday
24,15110717.609866636
36,9900000.0
72,6750000.0
1207,693325.663993798
1270,4517391.945872841
2,1, 6, 1, 0,16,30.00,45.00,Wednesday
24,15100873.389147835
36,9900000.0
72,6750000.0
1207,694108.3684398923
1270,4506765.0207079435
2,1, 6, 1, 0,16,45.00,60.00,Wednesday
24,15084766.54365505
36,9900000.0
72,6750000.0
1207,694398.2919883565
1270,4490368.251666695
2,1, 6, 1, 0,17, 0.00,15.00,Wednesday
24,13900466.534244025
36,9000000.0
72,6750000.0
1207,673353.0283649842
1270,4227113.505879043
2,1, 6, 1, 0,17,15.00,30.00,Wednesday
24,13856339.818249376
36,9000000.0
72,6750000.0
1207,672051.4377948347
1270,4184288.3804545435
2,1, 6, 1, 0,17,30.00,45.00,Wednesday
24,13805066.958541187
36,9000000.0
72,6750000.0
1207,669440.2610650085
1270,4135626.697476179
2,1, 6, 1, 0,17,45.00,60.00,Wednesday
24,13748499.287492676
36,9000000.0
72,6750000.0
1207,666570.9108360077
1270,4081928.376656669
2,1, 6, 1, 0,18, 0.00,15.00,Wednesday
24,13684771.232092317
36,9000000.0
72,6750000.0
1207,663491.7046295255
1270,4021279.5274627917
2,1, 6, 1, 0,18,15.00,30.00,Wednesday
24,13614923.119483808
36,9000000.0
72,6750000.0
1207,660068.4136907589
1270,3954854.7057930497
2,1, 6, 1, 0,18,30.00,45.00,Wednesday
24,13515026.79745136
36,9000000.0
72,6750000.0
1207,654762.8275462845
1270,3860263.9699050765
2,1, 6, 1, 0,18,45.00,60.00,Wednesday
24,13414820.706542727
36,9000000.0
72,6750000.0
1207,649669.64709251
1270,3765151.0594502166
2,1, 6, 1, 0,19, 0.00,15.00,Wednesday
24,9649944.825616654
36,5400000.0
72,4050000.0
1207,609679.987689753
1270,3640264.837926902
2,1, 6, 1, 0,19,15.00,30.00,Wednesday
24,9645655.821656503
36,5400000.0
72,4050000.0
1207,605685.4143263176
1270,3639970.4073301847
2,1, 6, 1, 0,19,30.00,45.00,Wednesday
24,9643345.505576566
36,5400000.0
72,4050000.0
1207,603435.1284576658
1270,3639910.377118901
2,1, 6, 1, 0,19,45.00,60.00,Wednesday
24,9641385.780087465
36,5400000.0
72,4050000.0
1207,601562.5953693578
1270,3639823.1847181073
2,1, 6, 1, 0,20, 0.00,15.00,Wednesday
24,8284969.200771317
36,4050000.0
72,2700000.0
1207,595259.4695665516
1270,3639709.731204764
2,1, 6, 1, 0,20,15.00,30.00,Wednesday
24,8283071.925350018
36,4050000.0
72,2700000.0
1207,593500.8813237367
1270,3639571.0440262808
2,1, 6, 1, 0,20,30.00,45.00,Wednesday
24,8282439.250566157
36,4050000.0
72,2700000.0
1207,593031.0891146234
1270,3639408.161451532
2,1, 6, 1, 0,20,45.00,60.00,Wednesday
24,8282062.3303021435
36,4050000.0
72,2700000.0
1207,592840.2253004119
1270,3639222.105001732
2,1, 6, 1, 0,21, 0.00,15.00,Wednesday
24,8282035.687436256
36,4050000.0
72,2700000.0
1207,592840.2253004119
1270,3639195.462135844
2,1, 6, 1, 0,21,15.00,30.00,Wednesday
24,8281979.300243592
36,4050000.0
72,2700000.0
1207,592840.2253004119
1270,3639139.07494318
2,1, 6, 1, 0,21,30.00,45.00,Wednesday
24,8281894.103491387
36,4050000.0
72,2700000.0
1207,592840.2253004119
1270,3639053.878190975
2,1, 6, 1, 0,21,45.00,60.00,Wednesday
24,8281781.16621762
36,4050000.0
72,2700000.0
1207,592840.2253004119
1270,3638940.940917208
2,1, 6, 1, 0,22, 0.00,15.00,Wednesday
24,4659581.502920331
36,427500.0
72,337500.0
1207,592840.2253004119
1270,3639241.277619919
2,1, 6, 1, 0,22,15.00,30.00,Wednesday
24,4659879.950136529
36,427500.0
72,337500.0
1207,592840.2253004119
1270,3639539.7248361167
2,1, 6, 1, 0,22,30.00,45.00,Wednesday
24,4660176.451256159
36,427500.0
72,337500.0
1207,592840.2253004119
1270,3639836.2259557466
2,1, 6, 1, 0,22,45.00,60.00,Wednesday
24,4660470.969974806
36,427500.0
72,337500.0
1207,592840.2253004119
1270,3640130.7446743934
2,1, 6, 1, 0,23, 0.00,15.00,Wednesday
24,4660687.972993988
36,427500.0
72,337500.0
1207,592840.2253004119
1270,3640347.747693575
2,1, 6, 1, 0,23,15.00,30.00,Wednesday
24,4660900.745566415
36,427500.0
72,337500.0
1207,592840.2253004119
1270,3640560.5202660025
2,1, 6, 1, 0,23,30.00,45.00,Wednesday
24,4661109.287731902
36,427500.0
72,337500.0
1207,592840.2253004119
1270,3640769.0624314896
2,1, 6, 1, 0,23,45.00,60.00,Wednesday
24,4661313.528318753
36,427500.0
72,337500.0
1207,592840.2253004119
1270,3640973.3030183404
2,1, 6, 1, 0,24, 0.00,15.00,Wednesday
24,4661765.121480793
36,427500.0
72,337500.0
1207,592840.2253004119
1270,3641424.89618038
2,1, 6, 1, 0,24,15.00,30.00,Wednesday
24,4662215.983651246
36,427500.0
72,337500.0
1207,592840.2253004119
1270,3641875.758350834
2,1, 6, 1, 0,24,30.00,45.00,Wednesday
24,4662666.062258321
36,427500.0
72,337500.0
1207,592840.2253004119
1270,3642325.8369579082
2,1, 6, 1, 0,24,45.00,60.00,Wednesday
24,4663115.224533446
36,427500.0
72,337500.0
1207,592840.2253004119
1270,3642774.9992330335
2,2, 6, 2, 0, 1, 0.00,15.00,Thursday
24,4663291.729379595
36,427500.0
72,337500.0
1207,592840.2253004119
1270,3642951.5040791826
2,2, 6, 2, 0, 1,15.00,30.00,Thursday
24,4663467.142818697
36,427500.0
72,337500.0
1207,592840.2253004119
1270,3643126.9175182846
2,2, 6, 2, 0, 1,30.00,45.00,Thursday
24,4663641.44224775
36,427500.0
72,337500.0
1207,592840.2253004119
1270,3643301.216947338
2,2, 6, 2, 0, 1,45.00,60.00,Thursday
24,4663814.644780418
36,427500.0
72,337500.0
1207,592840.2253004119
1270,3643474.4194800053
2,2, 6, 2, 0, 2, 0.00,15.00,Thursday
24,4664254.36539313
36,427500.0
72,337500.0
1207,592840.2253004119
1270,3643914.140092718
2,2, 6, 2, 0, 2,15.00,30.00,Thursday
24,4664697.216072976
36,427500.0
72,337500.0
1207,592840.2253004119
1270,3644356.990772563
2,2, 6, 2, 0, 2,30.00,45.00,Thursday
24,4665143.242331581
36,427500.0
72,337500.0
1207,592840.2253004119
1270,3644803.0170311686
2,2, 6, 2, 0, 2,45.00,60.00,Thursday
24,4665592.442990467
36,427500.0
72,337500.0
1207,592840.2253004119
1270,3645252.2176900543
2,2, 6, 2, 0, 3, 0.00,15.00,Thursday
24,4665763.860611271
36,427500.0
72,337500.0
1207,592840.2253004119
1270,3645423.635310859
2,2, 6, 2, 0, 3,15.00,30.00,Thursday
24,4665934.07387015
36,427500.0
72,337500.0
1207,592840.2253004119
1270,3645593.848569738
2,2, 6, 2, 0, 3,30.00,45.00,Thursday
24,4666103.099911999
36,427500.0
72,337500.0
1207,592840.2253004119
1270,3645762.8746115863
2,2, 6, 2, 0, 3,45.00,60.00,Thursday
24,4666270.890684249
36,427500.0
72,337500.0
1207,592840.2253004119
1270,3645930.6653838363
2,2, 6, 2, 0, 4, 0.00,15.00,Thursday
24,4666160.13437221
36,427500.0
72,337500.0
1207,592840.2253004119
1270,3645819.9090717975
2,2, 6, 2, 0, 4,15.00,30.00,Thursday
24,4666048.63829265
36,427500.0
72,337500.0
1207,592840.2253004119
1270,3645708.412992237
2,2, 6, 2, 0, 4,30.00,45.00,Thursday
24,4665936.414768321
36,427500.0
72,337500.0
1207,592840.2253004119
1270,3645596.189467909
2,2, 6, 2, 0, 4,45.00,60.00,Thursday
24,4665823.525018746
36,427500.0
72,337500.0
1207,592840.2253004119
1270,3645483.299718334
2,2, 6, 2, 0, 5, 0.00,15.00,Thursday
24,4665986.442479094
36,427500.0
72,337500.0
1207,592840.2253004119
1270,3645646.217178681
2,2, 6, 2, 0, 5,15.00,30.00,Thursday
24,4666148.079300258
36,427500.0
72,337500.0
1207,592840.2253004119
1270,3645807.8539998457
2,2, 6, 2, 0, 5,30.00,45.00,Thursday
24,4666308.459016458
36,427500.0
72,337500.0
1207,592840.2253004119
1270,3645968.233716046
2,2, 6, 2, 0, 5,45.00,60.00,Thursday
24,4666467.557051687
36,427500.0
72,337500.0
1207,592840.2253004119
1270,3646127.3317512744
2,2, 6, 2, 0, 6, 0.00,15.00,Thursday
24,4666345.355743387
36,427500.0
72,337500.0
1207,592840.2253004119
1270,3646005.130442974
2,2, 6, 2, 0, 6,15.00,30.00,Thursday
24,4666222.53283135
36,427500.0
72,337500.0
1207,592840.2253004119
1270,3645882.307530938
2,2, 6, 2, 0, 6,30.00,45.00,Thursday
24,4666099.08666873
36,427500.0
72,337500.0
1207,592840.2253004119
1270,3645758.8613683176
2,2, 6, 2, 0, 6,45.00,60.00,Thursday
24,4665975.093637165
36,427500.0
72,337500.0
1207,592840.2253004119
1270,3645634.868336752
2,2, 6, 2, 0, 7, 0.00,15.00,Thursday
24,4666426.836206183
36,427500.0
72,337500.0
1207,592840.2253004119
1270,3646086.61090577
2,2, 6, 2, 0, 7,15.00,30.00,Thursday
24,4666884.476578102
36,427500.0
72,337500.0
1207,592840.2253004119
1270,3646544.25127769
2,2, 6, 2, 0, 7,30.00,45.00,Thursday
24,4667348.100234559
36,427500.0
72,337500.0
1207,592840.2253004119
1270,3647007.8749341466
2,2, 6, 2, 0, 7,45.00,60.00,Thursday
24,4667817.749180331
36,427500.0
72,337500.0
1207,592840.2253004119
1270,3647477.5238799187
2,2, 6, 2, 0, 8, 0.00,15.00,Thursday
24,4668001.4055906795
36,427500.0
72,337500.0
1207,592840.2253004119
1270,3647661.1802902673
2,2, 6, 2, 0, 8,15.00,30.00,Thursday
24,4668185.833978246
36,427500.0
72,337500.0
1207,592840.2253004119
1270,3647845.608677834
2,2, 6, 2, 0, 8,30.00,45.00,Thursday
24,4668370.993809176
36,427500.0
72,337500.0
1207,592840.2253004119
1270,3648030.7685087635
2,2, 6, 2, 0, 8,45.00,60.00,Thursday
24,12119486.19896272
36,427500.0
72,337500.0
1207,718772.855710634
1270,10973213.343252087
2,2, 6, 2, 0, 9, 0.00,15.00,Thursday
24,13636229.210727887
36,7875000.0
72,6075000.0
1207,605745.5370565975
1270,5155483.67367129
2,2, 6, 2, 0, 9,15.00,30.00,Thursday
24,12121226.29585351
36,7875000.0
72,6075000.0
1207,597033.0207310505
1270,3649193.2751224604
2,2, 6, 2, 0, 9,30.00,45.00,Thursday
24,12124864.894116893
36,7875000.0
72,6075000.0
1207,600173.4977618675
1270,3649691.3963550255
2,2, 6, 2, 0, 9,45.00,60.00,Thursday
24,12130354.616526062
36,7875000.0
72,6075000.0
1207,605158.3551631344
1270,3650196.2613629266
2,2, 6, 2, 0,10, 0.00,15.00,Thursday
24,14753384.707234135
36,10462500.0
72,6412500.0
1207,640453.7221599412
1270,3650430.985074194
2,2, 6, 2, 0,10,15.00,30.00,Thursday
24,14762599.747693386
36,10462500.0
72,6412500.0
1207,649432.4681374731
1270,3650667.279555913
2,2, 6, 2, 0,10,30.00,45.00,Thursday
24,14768892.37412342
36,10462500.0
72,6412500.0
1207,655487.2139560527
1270,3650905.1601673686
2,2, 6, 2, 0,10,45.00,60.00,Thursday
24,14802611.510224719
36,10462500.0
72,6412500.0
1207,659359.9446857038
1270,3680751.565539016
2,2, 6, 2, 0,11, 0.00,15.00,Thursday
24,15203191.194308832
36,10800000.0
72,6750000.0
1207,663797.9158237844
1270,3739393.278485048
2,2, 6, 2, 0,11,15.00,30.00,Thursday
24,15259000.29894207
36,10800000.0
72,6750000.0
1207,667346.1683422545
1270,3791654.130599817
2,2, 6, 2, 0,11,30.00,45.00,Thursday
24,15266475.277005566
36,10800000.0
72,6750000.0
1207,666972.388318195
1270,3799502.888687371
2,2, 6, 2, 0,11,45.00,60.00,Thursday
24,15252167.614446083
36,10800000.0
72,6750000.0
1207,665169.8765437179
1270,3786997.737902366
2,2, 6, 2, 0,12, 0.00,15.00,Thursday
24,14766770.536053207
36,10462500.0
72,6412500.0
1207,652082.606273806
1270,3652187.9297794006
2,2, 6, 2, 0,12,15.00,30.00,Thursday
24,14753518.297450641
36,10462500.0
72,6412500.0
1207,638900.1536290857
1270,3652118.1438215566
2,2, 6, 2, 0,12,30.00,45.00,Thursday
24,14753096.695316022
36,10462500.0
72,6412500.0
1207,638230.9531786304
1270,3652365.7421373907
2,2, 6, 2, 0,12,45.00,60.00,Thursday
24,14753671.532835573
36,10462500.0
72,6412500.0
1207,638556.4825165735
1270,3652615.050318999
2,2, 6, 2, 0,13, 0.00,15.00,Thursday
24,13722518.199949658
36,9450000.0
72,5400000.0
1207,619761.1482345633
1270,3652757.051715094
2,2, 6, 2, 0,13,15.00,30.00,Thursday
24,13720815.145346815
36,9450000.0
72,5400000.0
1207,617930.2715314988
1270,3652884.8738153153
2,2, 6, 2, 0,13,30.00,45.00,Thursday
24,13729621.835225983
36,9450000.0
72,5400000.0
1207,626623.7242204384
1270,3652998.1110055447
2,2, 6, 2, 0,13,45.00,60.00,Thursday
24,13730399.14153722
36,9450000.0
72,5400000.0
1207,627302.6787816714
1270,3653096.462755549
2,2, 6, 2, 0,14, 0.00,15.00,Thursday
24,14472352.44904478
36,10125000.0
72,6075000.0
1207,646874.2983460829
1270,3700478.1506986986
2,2, 6, 2, 0,14,15.00,30.00,Thursday
24,14549421.963661844
36,10125000.0
72,6075000.0
1207,650692.2124613712
1270,3773729.7512004715
2,2, 6, 2, 0,14,30.00,45.00,Thursday
24,14581023.77050995
36,10125000.0
72,6075000.0
1207,651075.6185218652
1270,3804948.1519880854
2,2, 6, 2, 0,14,45.00,60.00,Thursday
24,14600426.590120675
36,10125000.0
72,6075000.0
1207,650538.6154163273
1270,3824887.974704348
2,2, 6, 2, 0,15, 0.00,15.00,Thursday
24,14869677.540556317
36,10350000.0
72,6750000.0
1207,652913.8927279403
1270,3866763.647828379
2,2, 6, 2, 0,15,15.00,30.00,Thursday
24,14644809.063929774
36,10350000.0
72,6750000.0
1207,639467.3591334881
1270,3655341.7047962868
2,2, 6, 2, 0,15,30.00,45.00,Thursday
24,14643825.11259199
36,10350000.0
72,6750000.0
1207,638997.6413137882
1270,3654827.471278199
2,2, 6, 2, 0,15,45.00,60.00,Thursday
24,14662957.360833054
36,10350000.0
72,6750000.0
1207,640244.4229843342
1270,3672712.9378487216
2,2, 6, 2, 0,16, 0.00,15.00,Thursday
24,14189448.962146506
36,9900000.0
72,6750000.0
1207,634602.9251399519
1270,3654846.037006553
2,2, 6, 2, 0,16,15.00,30.00,Thursday
24,14190400.596666696
36,9900000.0
72,6750000.0
1207,635596.6785077642
1270,3654803.9181589317
2,2, 6, 2, 0,16,30.00,45.00,Thursday
24,14377221.203788059
36,9900000.0
72,6750000.0
1207,649505.631989088
1270,3827715.5717989705
2,2, 6, 2, 0,16,45.00,60.00,Thursday
24,14386079.195908245
36,9900000.0
72,6750000.0
1207,650416.5747644086
1270,3835662.621143837
2,2, 6, 2, 0,17, 0.00,15.00,Thursday
24,13290114.275969569
36,9000000.0
72,6750000.0
1207,635137.279262711
1270,3654976.996706857
2,2, 6, 2, 0,17,15.00,30.00,Thursday
24,13288597.455047403
36,9000000.0
72,6750000.0
1207,634305.2652162904
1270,3654292.189831113
2,2, 6, 2, 0,17,30.00,45.00,Thursday
24,13286123.750874477
36,9000000.0
72,6750000.0
1207,632083.870057177
1270,3654039.8808173
2,2, 6, 2, 0,17,45.00,60.00,Thursday
24,13282082.08139187
36,9000000.0
72,6750000.0
1207,628292.8594280346
1270,3653789.2219638336
2,2, 6, 2, 0,18, 0.00,15.00,Thursday
24,13278018.568903113
36,9000000.0
72,6750000.0
1207,624233.4485272376
1270,3653785.120375876
2,2, 6, 2, 0,18,15.00,30.00,Thursday
24,13266175.999709379
36,9000000.0
72,6750000.0
1207,612396.1043018759
1270,3653779.895407504
2,2, 6, 2, 0,18,30.00,45.00,Thursday
24,13264627.687860657
36,9000000.0
72,6750000.0
1207,610854.0353431322
1270,3653773.652517526
2,2, 6, 2, 0,18,45.00,60.00,Thursday
24,13263652.139800686
36,9000000.0
72,6750000.0
1207,609885.8036667889
1270,3653766.3361338987
2,2, 6, 2, 0,19, 0.00,15.00,Thursday
24,9648750.196360663
36,5400000.0
72,4050000.0
1207,595228.4924897174
1270,3653521.703870945
2,2, 6, 2, 0,19,15.00,30.00,Thursday
24,9647568.683224916
36,5400000.0
72,4050000.0
1207,594291.7892167841
1270,3653276.8940081336
2,2, 6, 2, 0,19,30.00,45.00,Thursday
24,9647090.220676992
36,5400000.0
72,4050000.0
1207,594058.2983642132
1270,3653031.92231278
2,2, 6, 2, 0,19,45.00,60.00,Thursday
24,9646568.598392688
36,5400000.0
72,4050000.0
1207,593781.7448257885
1270,3652786.8535669004
2,2, 6, 2, 0,20, 0.00,15.00,Thursday
24,8295151.985914024
36,4050000.0
72,2700000.0
1207,592840.2253004119
1270,3652311.760613612
2,2, 6, 2, 0,20,15.00,30.00,Thursday
24,8294683.051750115
36,4050000.0
72,2700000.0
1207,592840.2253004119
1270,3651842.826449703
2,2, 6, 2, 0,20,30.00,45.00,Thursday
24,8294220.0933862245
36,4050000.0
72,2700000.0
1207,592840.2253004119
1270,3651379.868085813
2,2, 6, 2, 0,20,45.00,60.00,Thursday
24,8293762.978250567
36,4050000.0
72,2700000.0
1207,592840.2253004119
1270,3650922.752950155
2,2, 6, 2, 0,21, 0.00,15.00,Thursday
24,8293527.3773688655
36,4050000.0
72,2700000.0
1207,592840.2253004119
1270,3650687.1520684534
2,2, 6, 2, 0,21,15.00,30.00,Thursday
24,8293291.672099758
36,4050000.0
72,2700000.0
1207,592840.2253004119
1270,3650451.446799346
2,2, 6, 2, 0,21,30.00,45.00,Thursday
24,8293055.9264877
36,4050000.0
72,2700000.0
1207,592840.2253004119
1270,3650215.701187289
2,2, 6, 2, 0,21,45.00,60.00,Thursday
24,8406278.922391783
36,4050000.0
72,2700000.0
1207,592840.2253004119
1270,3763438.697091371
2,2, 6, 2, 0,22, 0.00,15.00,Thursday
24,4670289.669168324
36,427500.0
72,337500.0
1207,592840.2253004119
1270,3649949.443867912
2,2, 6, 2, 0,22,15.00,30.00,Thursday
24,4670255.570045337
36,427500.0
72,337500.0
1207,592840.2253004119
1270,3649915.3447449245
2,2, 6, 2, 0,22,30.00,45.00,Thursday
24,4670217.836770499
36,427500.0
72,337500.0
1207,592840.2253004119
1270,3649877.611470087
2,2, 6, 2, 0,22,45.00,60.00,Thursday
24,4670176.626747807
36,427500.0
72,337500.0
1207,592840.2253004119
1270,3649836.4014473944
2,2, 6, 2, 0,23, 0.00,15.00,Thursday
24,4669930.106775241
36,427500.0
72,337500.0
1207,592840.2253004119
1270,3649589.8814748283
2,2, 6, 2, 0,23,15.00,30.00,Thursday
24,4669683.798535712
36,427500.0
72,337500.0
1207,592840.2253004119
1270,3649343.5732352994
2,2, 6, 2, 0,23,30.00,45.00,Thursday
24,4669437.793556886
36,427500.0
72,337500.0
1207,592840.2253004119
1270,3649097.5682564736
2,2, 6, 2, 0,23,45.00,60.00,Thursday
24,4669192.0278073875
36,427500.0
72,337500.0
1207,592840.2253004119
1270,3648851.8025069754
2,2, 6, 2, 0,24, 0.00,15.00,Thursday
24,4669139.386498403
36,427500.0
72,337500.0
1207,592840.2253004119
1270,3648799.16119799
2,2, 6, 2, 0,24,15.00,30.00,Thursday
24,4669083.420277647
36,427500.0
72,337500.0
1207,592840.2253004119
1270,3648743.1949772346
2,2, 6, 2, 0,24,30.00,45.00,Thursday
24,4669024.256013198
36,427500.0
72,337500.0
1207,592840.2253004119
1270,3648684.0307127857
2,2, 6, 2, 0,24,45.00,60.00,Thursday
24,4668961.918550319
36,427500.0
72,337500.0
1207,592840.2253004119
1270,3648621.693249907
2,3, 6, 3, 0, 1, 0.00,15.00,Friday
24,4668519.014358578
36,427500.0
72,337500.0
1207,592840.2253004119
1270,3648178.7890581656
2,3, 6, 3, 0, 1,15.00,30.00,Friday
24,4668081.674068713
36,427500.0
72,337500.0
1207,592840.2253004119
1270,3647741.4487683005
2,3, 6, 3, 0, 1,30.00,45.00,Friday
24,4667649.821957452
36,427500.0
72,337500.0
1207,592840.2253004119
1270,3647309.59665704
2,3, 6, 3, 0, 1,45.00,60.00,Friday
24,4667223.351861946
36,427500.0
72,337500.0
1207,592840.2253004119
1270,3646883.1265615337
2,3, 6, 3, 0, 2, 0.00,15.00,Friday
24,4666802.200964579
36,427500.0
72,337500.0
1207,592840.2253004119
1270,3646461.9756641667
2,3, 6, 3, 0, 2,15.00,30.00,Friday
24,4666386.207110211
36,427500.0
72,337500.0
1207,592840.2253004119
1270,3646045.981809799
2,3, 6, 3, 0, 2,30.00,45.00,Friday
24,4665975.329674123
36,427500.0
72,337500.0
1207,592840.2253004119
1270,3645635.1043737107
2,3, 6, 3, 0, 2,45.00,60.00,Friday
24,4665569.48343752
36,427500.0
72,337500.0
1207,592840.2253004119
1270,3645229.258137108
2,3, 6, 3, 0, 3, 0.00,15.00,Friday
24,4665168.531521385
36,427500.0
72,337500.0
1207,592840.2253004119
1270,3644828.306220972
2,3, 6, 3, 0, 3,15.00,30.00,Friday
24,4664772.453980437
36,427500.0
72,337500.0
1207,592840.2253004119
1270,3644432.2286800244
2,3, 6, 3, 0, 3,30.00,45.00,Friday
24,4664381.089260755
36,427500.0
72,337500.0
1207,592840.2253004119
1270,3644040.8639603425
2,3, 6, 3, 0, 3,45.00,60.00,Friday
24,4663994.438102425
36,427500.0
72,337500.0
1207,592840.2253004119
1270,3643654.2128020125
2,3, 6, 3, 0, 4, 0.00,15.00,Friday
24,4664081.044249251
36,427500.0
72,337500.0
1207,592840.2253004119
1270,3643740.818948838
2,3, 6, 3, 0, 4,15.00,30.00,Friday
24,4664163.274865542
36,427500.0
72,337500.0
1207,592840.2253004119
1270,3643823.049565129
2,3, 6, 3, 0, 4,30.00,45.00,Friday
24,4664241.134066064
36,427500.0
72,337500.0
1207,592840.2253004119
1270,3643900.9087656518
2,3, 6, 3, 0, 4,45.00,60.00,Friday
24,4664314.639730427
36,427500.0
72,337500.0
1207,592840.2253004119
1270,3643974.414430015
2,3, 6, 3, 0, 5, 0.00,15.00,Friday
24,4664537.793898453
36,427500.0
72,337500.0
1207,592840.2253004119
1270,3644197.5685980404
2,3, 6, 3, 0, 5,15.00,30.00,Friday
24,4664755.756426714
36,427500.0
72,337500.0
1207,592840.2253004119
1270,3644415.531126302
2,3, 6, 3, 0, 5,30.00,45.00,Friday
24,4664968.503393996
36,427500.0
72,337500.0
1207,592840.2253004119
1270,3644628.278093583
2,3, 6, 3, 0, 5,45.00,60.00,Friday
24,4665176.047657229
36,427500.0
72,337500.0
1207,592840.2253004119
1270,3644835.822356817
2,3, 6, 3, 0, 6, 0.00,15.00,Friday
24,4665225.069936676
36,427500.0
72,337500.0
1207,592840.2253004119
1270,3644884.844636264
2,3, 6, 3, 0, 6,15.00,30.00,Friday
24,4665269.805840191
36,427500.0
72,337500.0
1207,592840.2253004119
1270,3644929.580539779
2,3, 6, 3, 0, 6,30.00,45.00,Friday
24,4665310.282112575
36,427500.0
72,337500.0
1207,592840.2253004119
1270,3644970.0568121625
2,3, 6, 3, 0, 6,45.00,60.00,Friday
24,4665346.514730917
36,427500.0
72,337500.0
1207,592840.2253004119
1270,3645006.2894305047
2,3, 6, 3, 0, 7, 0.00,15.00,Friday
24,4666098.95084105
36,427500.0
72,337500.0
1207,592840.2253004119
1270,3645758.725540637
2,3, 6, 3, 0, 7,15.00,30.00,Friday
24,4666863.261374843
36,427500.0
72,337500.0
1207,592840.2253004119
1270,3646523.036074431
2,3, 6, 3, 0, 7,30.00,45.00,Friday
24,4667639.614915615
36,427500.0
72,337500.0
1207,592840.2253004119
1270,3647299.3896152023
2,3, 6, 3, 0, 7,45.00,60.00,Friday
24,4668428.1798439855
36,427500.0
72,337500.0
1207,592840.2253004119
1270,3648087.9545435733