Program Version,EnergyPlus, Version 23.2.0-7636e6b3e9, YMD=2026.04.10 15:09
1,5,Environment Title[],Latitude[deg],Longitude[deg],Time Zone[],Elevation[m]
2,8,Day of Simulation[],Month[],Day of Month[],DST Indicator[1=yes 0=no],Hour[],StartMinute[],EndMinute[],DayType
3,5,Cumulative Day of Simulation[],Month[],Day of Month[],DST Indicator[1=yes 0=no],DayType  ! When Daily Report Variables Requested
4,2,Cumulative Days of Simulation[],Month[]  ! When Monthly Report Variables Requested
5,1,Cumulative Days of Simulation[] ! When Run Period Report Variables Requested
6,1,Calendar Year of Simulation[] ! When Annual Report Variables Requested
7,1,Environment,Site Outdoor Air Drybulb Temperature [C] !TimeStep
18,1,SPACE1-1,Space People Occupant Count [] !TimeStep
19,1,SPACE2-1,Space People Occupant Count [] !TimeStep
20,1,SPACE3-1,Space People Occupant Count [] !TimeStep
21,1,SPACE4-1,Space People Occupant Count [] !TimeStep
22,1,SPACE5-1,Space People Occupant Count [] !TimeStep
465,1,PLENUM-1,Zone Air Temperature [C] !TimeStep
600,1,PLENUM-1,Zone Thermostat Heating Setpoint Temperature [C] !TimeStep
601,1,PLENUM-1,Zone Thermostat Cooling Setpoint Temperature [C] !TimeStep
602,1,SPACE1-1,Zone Air Temperature [C] !TimeStep
666,1,SPACE1-1,Zone Thermostat Heating Setpoint Temperature [C] !TimeStep
667,1,SPACE1-1,Zone Thermostat Cooling Setpoint Temperature [C] !TimeStep
668,1,SPACE2-1,Zone Air Temperature [C] !TimeStep
732,1,SPACE2-1,Zone Thermostat Heating Setpoint Temperature [C] !TimeStep
733,1,SPACE2-1,Zone Thermostat Cooling Setpoint Temperature [C] !TimeStep
734,1,SPACE3-1,Zone Air Temperature [C] !TimeStep
798,1,SPACE3-1,Zone Thermostat Heating Setpoint Temperature [C] !TimeStep
799,1,SPACE3-1,Zone Thermostat Cooling Setpoint Temperature [C] !TimeStep
800,1,SPACE4-1,Zone Air Temperature [C] !TimeStep
864,1,SPACE4-1,Zone Thermostat Heating Setpoint Temperature [C] !TimeStep
865,1,SPACE4-1,Zone Thermostat Cooling Setpoint Temperature [C] !TimeStep
866,1,SPACE5-1,Zone Air Temperature [C] !TimeStep
930,1,SPACE5-1,Zone Thermostat Heating Setpoint Temperature [C] !TimeStep
931,1,SPACE5-1,Zone Thermostat Cooling Setpoint Temperature [C] !TimeStep
1079,1,SPACE1-1 PEOPLE 1,Zone Thermal Comfort Fanger Model PPD [%] !TimeStep
1080,1,SPACE2-1 PEOPLE 1,Zone Thermal Comfort Fanger Model PPD [%] !TimeStep
1081,1,SPACE3-1 PEOPLE 1,Zone Thermal Comfort Fanger Model PPD [%] !TimeStep
1082,1,SPACE4-1 PEOPLE 1,Zone Thermal Comfort Fanger Model PPD [%] !TimeStep
1083,1,SPACE5-1 PEOPLE 1,Zone Thermal Comfort Fanger Model PPD [%] !TimeStep
End of Data Dictionary
1,RUN PERIOD 2,  36.60, 117.05,   8.00, 215.00
2,1, 6, 1, 0, 1, 0.00,15.00,Wednesday
7,22.5
18,0.0
19,0.0
20,0.0
21,0.0
22,0.0
1079,33.871031875205816
1080,34.29060240862658
1081,34.067189184669814
1082,34.7425687653773
1083,32.322921802272475
465,24.575500434865692
600,0.0
601,0.0
602,22.333081558911854
666,15.0
667,25.0
668,22.297993843198437
732,15.0
733,25.0
734,22.325584049004533
798,15.0
799,25.0
800,22.25484368482536
864,15.0
865,25.0
866,22.423594339715645
930,15.0
931,25.0
2,1, 6, 1, 0, 1,15.00,30.00,Wednesday
7,21.200000000000003
18,0.0
19,0.0
20,0.0
21,0.0
22,0.0
1079,35.286068552053734
1080,35.64383704896686
1081,35.48613109343408
1082,36.10909357507381
1083,33.21071033821815
465,24.390672252589486
600,0.0
601,0.0
602,22.24142808455881
666,15.0
667,30.0
668,22.20931099460352
732,15.0
733,30.0
734,22.233927932650275
798,15.0
799,30.0
800,22.166122845593602
864,15.0
865,30.0
866,22.359925638373397
930,15.0
931,30.0
2,1, 6, 1, 0, 1,30.00,45.00,Wednesday
7,19.900000000000002
18,0.0
19,0.0
20,0.0
21,0.0
22,0.0
1079,36.82975107702306
1080,37.13884826494818
1081,37.07556824681039
1082,37.6022977878465
1083,34.127049755312655
465,24.214594962450462
600,0.0
601,0.0
602,22.138650747963958
666,15.0
667,30.0
668,22.108897057082878
732,15.0
733,30.0
734,22.127262016237392
798,15.0
799,30.0
800,22.066186374871087
864,15.0
865,30.0
866,22.29361505113502
930,15.0
931,30.0
2,1, 6, 1, 0, 1,45.00,60.00,Wednesday
7,18.6
18,0.0
19,0.0
20,0.0
21,0.0
22,0.0
1079,38.459683805085625
1080,38.720298713276485
1081,38.769246595723736
1082,39.18618197995446
1083,35.05196599489689
465,24.04457172862367
600,0.0
601,0.0
602,22.03080837214768
666,15.0
667,30.0
668,22.003568129216
732,15.0
733,30.0
734,22.014175713839375
798,15.0
799,30.0
800,21.9611391009528
864,15.0
865,30.0
866,22.22756376128832
930,15.0
931,30.0
2,1, 6, 1, 0, 2, 0.00,15.00,Wednesday
7,18.475
18,0.0
19,0.0
20,0.0
21,0.0
22,0.0
1079,39.61227439661083
1080,39.87992954080727
1081,39.97056377977984
1082,40.345981024819274
1083,35.87154896470828
465,23.87889172528153
600,0.0
601,0.0
602,21.945715979120077
666,15.0
667,30.0
668,21.91965985356703
732,15.0
733,30.0
734,21.92550952457446
798,15.0
799,30.0
800,21.877263676130983
864,15.0
865,30.0
866,22.168749714330374
930,15.0
931,30.0
2,1, 6, 1, 0, 2,15.00,30.00,Wednesday
7,18.35
18,0.0
19,0.0
20,0.0
21,0.0
22,0.0
1079,40.55010888450043
1080,40.83403071649246
1081,40.93333326655055
1082,41.30096678112142
1083,36.60819595401819
465,23.71763726574138
600,0.0
601,0.0
602,21.8841286574033
666,15.0
667,30.0
668,21.857771850372604
732,15.0
733,30.0
734,21.86244933790037
798,15.0
799,30.0
800,21.8152105618844
864,15.0
865,30.0
866,22.118713257930693
930,15.0
931,30.0
2,1, 6, 1, 0, 2,30.00,45.00,Wednesday
7,18.225
18,0.0
19,0.0
20,0.0
21,0.0
22,0.0
1079,41.37125858810899
1080,41.680900764647845
1081,41.768729422706556
1082,42.14926878144935
1083,37.277382154005096
465,23.561230028100752
600,0.0
601,0.0
602,21.833358863698805
666,15.0
667,30.0
668,21.805746271402317
732,15.0
733,30.0
734,21.811193266466784
798,15.0
799,30.0
800,21.762927656809683
864,15.0
865,30.0
866,22.074962111242648
930,15.0
931,30.0
2,1, 6, 1, 0, 2,45.00,60.00,Wednesday
7,18.1
18,0.0
19,0.0
20,0.0
21,0.0
22,0.0
1079,42.156033070096065
1080,42.493745439913965
1081,42.56562692537922
1082,42.96327070077456
1083,37.90131147281921
465,23.409535065862812
600,0.0
601,0.0
602,21.7847342777718
666,15.0
667,30.0
668,21.755604358409638
732,15.0
733,30.0
734,21.762160757900165
798,15.0
799,30.0
800,21.712556718104402
864,15.0
865,30.0
866,22.03482799091556
930,15.0
931,30.0
2,1, 6, 1, 0, 3, 0.00,15.00,Wednesday
7,17.950000000000003
18,0.0
19,0.0
20,0.0
21,0.0
22,0.0
1079,42.98029802228614
1080,43.3646749214397
1081,43.429199729394895
1082,43.83018519155975
1083,38.51221064258753
465,23.261467777584688
600,0.0
601,0.0
602,21.73417980486922
666,15.0
667,30.0
668,21.70276915239473
732,15.0
733,30.0
734,21.709752850756768
798,15.0
799,30.0
800,21.659664461649385
864,15.0
865,30.0
866,21.99634273379447
930,15.0
931,30.0
2,1, 6, 1, 0, 3,15.00,30.00,Wednesday
7,17.8
18,0.0
19,0.0
20,0.0
21,0.0
22,0.0
1079,43.80783234449723
1080,44.24266944758916
1081,44.30856939597599
1082,44.704560223552456
1083,39.11189359674165
465,23.115998291494996
600,0.0
601,0.0
602,21.682842574442795
666,15.0
667,30.0
668,21.648542717392402
732,15.0
733,30.0
734,21.655320270084395
798,15.0
799,30.0
800,21.605624017684875
864,15.0
865,30.0
866,21.95878342016572
930,15.0
931,30.0
2,1, 6, 1, 0, 3,30.00,45.00,Wednesday
7,17.65
18,0.0
19,0.0
20,0.0
21,0.0
22,0.0
1079,44.62042727793387
1080,45.10779339224832
1081,45.178052644893725
1082,45.564239561065904
1083,39.70014994523148
465,22.973114541874782
600,0.0
601,0.0
602,21.632768831849283
666,15.0
667,30.0
668,21.595395249276955
732,15.0
733,30.0
734,21.601703017373946
798,15.0
799,30.0
800,21.552833041147398
864,15.0
865,30.0
866,21.92219728378514
930,15.0
931,30.0
2,1, 6, 1, 0, 3,45.00,60.00,Wednesday
7,17.5
18,0.0
19,0.0
20,0.0
21,0.0
22,0.0
1079,45.41023552858958
1080,45.9499629663779
1081,46.02514111673195
1082,46.40015357683026
1083,40.275218098082675
465,22.833590158573685
600,0.0
601,0.0
602,21.584716960814752
666,15.0
667,30.0
668,21.54430202856376
732,15.0
733,30.0
734,21.55012114249016
798,15.0
799,30.0
800,21.502164786484464
864,15.0
865,30.0
866,21.886775168084842
930,15.0
931,30.0
2,1, 6, 1, 0, 4, 0.00,15.00,Wednesday
7,17.575
18,0.0
19,0.0
20,0.0
21,0.0
22,0.0
1079,46.007529325527265
1080,46.57301165630171
1081,46.63101707860949
1082,47.02132946799101
1083,40.80510874471023
465,22.698739335507835
600,0.0
601,0.0
602,21.545961197824973
666,15.0
667,30.0
668,21.50399356858316
732,15.0
733,30.0
734,21.510266200778297
798,15.0
799,30.0
800,21.462116840347456
864,15.0
865,30.0
866,21.85364512990728
930,15.0
931,30.0
2,1, 6, 1, 0, 4,15.00,30.00,Wednesday
7,17.65
18,0.0
19,0.0
20,0.0
21,0.0
22,0.0
1079,46.50393386744795
1080,47.08283833028641
1081,47.113625663059075
1082,47.52988949126908
1083,41.30413709294135
465,22.568953264845923
600,0.0
601,0.0
602,21.51613443342559
666,15.0
667,30.0
668,21.473849071612435
732,15.0
733,30.0
734,21.481503974813645
798,15.0
799,30.0
800,21.431996575435655
864,15.0
865,30.0
866,21.823265548286248
930,15.0
931,30.0
2,1, 6, 1, 0, 4,30.00,45.00,Wednesday
7,17.725
18,0.0
19,0.0
20,0.0
21,0.0
22,0.0
1079,46.93530974448532
1080,47.52077322389087
1081,47.52036444525373
1082,47.96834828642087
1083,41.767254723509176
465,22.44612085547231
600,0.0
601,0.0
602,21.491365130199206
666,15.0
667,30.0
668,21.449193300443945
732,15.0
733,30.0
734,21.458653473205576
798,15.0
799,30.0
800,21.407214490512114
864,15.0
865,30.0
866,21.795493322555572
930,15.0
931,30.0
2,1, 6, 1, 0, 4,45.00,60.00,Wednesday
7,17.8
18,0.0
19,0.0
20,0.0
21,0.0
22,0.0
1079,47.32268904093794
1080,47.91142345875339
1081,47.880459332860525
1082,48.360391669952705
1083,42.197224179052874
465,22.325952529360702
600,0.0
601,0.0
602,21.4692580986286
666,15.0
667,30.0
668,21.42727883037049
732,15.0
733,30.0
734,21.438516159054785
798,15.0
799,30.0
800,21.385132853953266
864,15.0
865,30.0
866,21.770089217623678
930,15.0
931,30.0
2,1, 6, 1, 0, 5, 0.00,15.00,Wednesday
7,18.1
18,0.0
19,0.0
20,0.0
21,0.0
22,0.0
1079,47.64237018627825
1080,48.274340688584026
1081,48.21131261314423
1082,48.72044956480867
1083,42.597192733912
465,22.203978851224456
600,0.0
601,0.0
602,21.451223900295936
666,15.0
667,30.0
668,21.407656422274975
732,15.0
733,30.0
734,21.420663678610094
798,15.0
799,30.0
800,21.36557638281485
864,15.0
865,30.0
866,21.747368347837245
930,15.0
931,30.0
2,1, 6, 1, 0, 5,15.00,30.00,Wednesday
7,18.4
18,0.0
19,0.0
20,0.0
21,0.0
22,0.0
1079,47.91602147492284
1080,48.60372391118913
1081,48.50931158368943
1082,49.04574336492236
1083,42.97018974751778
465,22.083596523159695
600,0.0
601,0.0
602,21.43726267697075
666,15.0
667,30.0
668,21.39071794931846
732,15.0
733,30.0
734,21.405458089646153
798,15.0
799,30.0
800,21.34889560674787
864,15.0
865,30.0
866,21.727193325017282
930,15.0
931,30.0
2,1, 6, 1, 0, 5,30.00,45.00,Wednesday
7,18.7
18,0.0
19,0.0
20,0.0
21,0.0
22,0.0
1079,48.15484225680575
1080,48.90239980608624
1081,48.777660167007475
1082,49.340721997187394
1083,43.322024325211686
465,21.969098750698763
600,0.0
601,0.0
602,21.42637791559227
666,15.0
667,30.0
668,21.376648885102515
732,15.0
733,30.0
734,21.393019128636666
798,15.0
799,30.0
800,21.33512743404979
864,15.0
865,30.0
866,21.70920251897047
930,15.0
931,30.0
2,1, 6, 1, 0, 5,45.00,60.00,Wednesday
7,19.0
18,0.0
19,0.0
20,0.0
21,0.0
22,0.0
1079,47.991783282193815
1080,48.685595727718535
1081,48.43606040132964
1082,49.21868257361648
1083,43.32115273183813
465,21.86517302624913
600,0.0
601,0.0
602,21.430052651382823
666,15.0
667,30.0
668,21.38250039119968
732,15.0
733,30.0
734,21.40405590124245
798,15.0
799,30.0
800,21.337226057341375
864,15.0
865,30.0
866,21.7011812707933
930,15.0
931,30.0
2,1, 6, 1, 0, 6, 0.00,15.00,Wednesday
7,19.5
18,0.0
19,0.0
20,0.0
21,0.0
22,0.0
1079,47.89281452276455
1080,48.65049399917046
1081,48.37910691512516
1082,49.17528385157649
1083,43.460309931199355
465,21.774076288491923
600,0.0
601,0.0
602,21.444108064968468
666,15.0
667,30.0
668,21.396158103308682
732,15.0
733,30.0
734,21.420920987614345
798,15.0
799,30.0
800,21.349240447140087
864,15.0
865,30.0
866,21.700813584027554
930,15.0
931,30.0
2,1, 6, 1, 0, 6,15.00,30.00,Wednesday
7,20.0
18,0.0
19,0.0
20,0.0
21,0.0
22,0.0
1079,47.78626460324386
1080,48.63860053481597
1081,48.35971437652435
1082,49.13397273985849
1083,43.57642028028606
465,21.692651451749974
600,0.0
601,0.0
602,21.45944417744863
666,15.0
667,30.0
668,21.406862683963215
732,15.0
733,30.0
734,21.4320354635469
798,15.0
799,30.0
800,21.36163469790477
864,15.0
865,30.0
866,21.702184332630896
930,15.0
931,30.0
2,1, 6, 1, 0, 6,30.00,45.00,Wednesday
7,20.5
18,0.0
19,0.0
20,0.0
21,0.0
22,0.0
1079,46.426956061931975
1080,46.72780000505693
1081,46.111563734621406
1082,47.849429053103606
1083,42.49320773355916
465,21.634575879330665
600,0.0
601,0.0
602,21.51336555795453
666,15.0
667,30.0
668,21.478542367469572
732,15.0
733,30.0
734,21.512973895224384
798,15.0
799,30.0
800,21.4135964578318
864,15.0
865,30.0
866,21.733051676539695
930,15.0
931,30.0
2,1, 6, 1, 0, 6,45.00,60.00,Wednesday
7,21.0
18,0.0
19,0.0
20,0.0
21,0.0
22,0.0
1079,44.63000454163564
1080,44.26735772338582
1081,43.40421541532625
1082,46.07784873044206
1083,41.16661820456009
465,21.608585431852607
600,0.0
601,0.0
602,21.616933269680192
666,15.0
667,30.0
668,21.621031642694117
732,15.0
733,30.0
734,21.671291017013257
798,15.0
799,30.0
800,21.518006980862136
864,15.0
865,30.0
866,21.80614286042172
930,15.0
931,30.0
2,1, 6, 1, 0, 7, 0.00,15.00,Wednesday
7,20.65
18,0.0
19,0.0
20,0.0
21,0.0
22,0.0
1079,42.27789899875736
1080,40.8286314227553
1081,39.80344704439996
1082,43.657238323318566
1083,39.20981590343523
465,21.613252047226062
600,0.0
601,0.0
602,21.75610285962125
666,15.0
667,30.0
668,21.824793824571277
732,15.0
733,30.0
734,21.888909155367518
798,15.0
799,30.0
800,21.660900287221157
864,15.0
865,30.0
866,21.91580905742184
930,15.0
931,30.0
2,1, 6, 1, 0, 7,15.00,30.00,Wednesday
7,20.3
18,0.0
19,0.0
20,0.0
21,0.0
22,0.0
1079,39.823602050372365
1080,37.25752492660459
1081,36.24901751997445
1082,41.07660314843188
1083,37.171121577934734
465,21.64284459699833
600,0.0
601,0.0
602,21.910992882745628
666,15.0
667,30.0
668,22.056896100288444
732,15.0
733,30.0
734,22.125426646856813
798,15.0
799,30.0
800,21.82156338172389
864,15.0
865,30.0
866,22.04580697953516
930,15.0
931,30.0
2,1, 6, 1, 0, 7,30.00,45.00,Wednesday
7,19.950000000000003
18,0.0
19,0.0
20,0.0
21,0.0
22,0.0
1079,37.447050621445214
1080,33.69043126561429
1081,32.8442812040299
1082,38.55202477106002
1083,35.15110243084095
465,21.692678249031474
600,0.0
601,0.0
602,22.065130043803077
666,15.0
667,30.0
668,22.295939549874152
732,15.0
733,30.0
734,22.357920410502857
798,15.0
799,30.0
800,21.982393668612673
864,15.0
865,30.0
866,22.17984528065474
930,15.0
931,30.0
2,1, 6, 1, 0, 7,45.00,60.00,Wednesday
7,19.6
18,0.0
19,0.0
20,0.0
21,0.0
22,0.0
1079,34.71149202182542
1080,29.620068143355212
1081,29.063689747520726
1082,35.70131109871495
1083,32.79701181396058
465,21.771613905864086
600,0.0
601,0.0
602,22.229166023075635
666,15.0
667,30.0
668,22.565304686243394
732,15.0
733,30.0
734,22.609850904832644
798,15.0
799,30.0
800,22.151300737983302
864,15.0
865,30.0
866,22.32227689357579
930,15.0
931,30.0
2,1, 6, 1, 0, 8, 0.00,15.00,Wednesday
7,20.325000000000003
18,0.0
19,0.0
20,0.0
21,0.0
22,0.0
1079,32.3602225063003
1080,26.386405325684308
1081,26.185156620713926
1082,33.32935767857376
1083,31.069811738576405
465,21.86570344559535
600,0.0
601,0.0
602,22.34887572858348
666,15.0
667,30.0
668,22.761055443118046
732,15.0
733,30.0
734,22.781258967522056
798,15.0
799,30.0
800,22.271514164554034
864,15.0
865,30.0
866,22.40906538599991
930,15.0
931,30.0
2,1, 6, 1, 0, 8,15.00,30.00,Wednesday
7,21.05
18,0.0
19,0.0
20,0.0
21,0.0
22,0.0
1079,29.033756869045078
1080,21.85383025697068
1081,22.152774135562936
1082,29.97585402274234
1083,28.473031339277725
465,22.023796015338974
600,0.0
601,0.0
602,22.605456810523528
666,15.0
667,30.0
668,23.178112526722444
732,15.0
733,30.0
734,23.153336081210767
798,15.0
799,30.0
800,22.526488026353753
864,15.0
865,30.0
866,22.61613087583256
930,15.0
931,30.0
2,1, 6, 1, 0, 8,30.00,45.00,Wednesday
7,21.775
18,0.0
19,0.0
20,0.0
21,0.0
22,0.0
1079,26.42110508119987
1080,18.552079232982322
1081,19.263153590417218
1082,27.343225374350865
1083,26.417835881807278
465,22.199379367300672
600,0.0
601,0.0
602,22.811941252883965
666,15.0
667,30.0
668,23.509581927001086
732,15.0
733,30.0
734,23.439995258760234
798,15.0
799,30.0
800,22.729689427787974
864,15.0
865,30.0
866,22.786610255027497
930,15.0
931,30.0
2,1, 6, 1, 0, 8,45.00,60.00,Wednesday
7,22.5
18,0.0
19,0.0
20,0.0
21,0.0
22,0.0
1079,18.70992365441353
1080,14.18503287484279
1081,14.993734139991531
1082,19.460463052217634
1083,23.569247700784715
465,22.61764456482077
600,0.0
601,0.0
602,23.84327428030759
666,24.000000000000004
667,26.0
668,24.13529385592003
732,24.000000000000004
733,26.0
734,24.059686278424802
798,24.000000000000004
799,26.0
800,23.762604522481674
864,24.000000000000004
865,26.0
866,23.128274960160056
930,24.000000000000004
931,26.0
2,1, 6, 1, 0, 9, 0.00,15.00,Wednesday
7,23.25
18,11.0
19,5.0
20,11.0
21,5.0
22,20.0
1079,10.33017179417314
1080,7.043299826825006
1081,7.668133655712211
1082,10.340864826511051
1083,13.120395082739236
465,23.68716420940055
600,0.0
601,0.0
602,24.817646495377254
666,24.0
667,25.999999999999996
668,25.357954604755417
732,24.0
733,25.999999999999996
734,25.2339453329973
798,24.0
799,25.999999999999996
800,24.833573336610186
864,24.0
865,25.999999999999996
866,24.301851674626807
930,24.0
931,25.999999999999996
2,1, 6, 1, 0, 9,15.00,30.00,Wednesday
7,24.0
18,11.0
19,5.0
20,11.0
21,5.0
22,20.0
1079,7.030473889338751
1080,5.379906145867864
1081,5.655981345620887
1082,7.10751343868921
1083,8.46695259611549
465,24.262821484717474
600,0.0
601,0.0
602,25.48094275248483
666,24.000000000000004
667,26.0
668,25.871747511560052
732,24.000000000000004
733,26.0
734,25.79177541072968
798,24.000000000000004
799,26.0
800,25.453447208085045
864,24.000000000000004
865,26.0
866,25.153437105982867
930,24.000000000000004
931,26.0
2,1, 6, 1, 0, 9,30.00,45.00,Wednesday
7,24.75
18,11.0
19,5.0
20,11.0
21,5.0
22,20.0
1079,5.77409751166654
1080,5.091243876863274
1081,5.211028443043745
1082,5.802865695361817
1083,6.51416329765307
465,24.840361956081992
600,0.0
601,0.0
602,25.86711266488504
666,24.0
667,26.0
668,25.99744912857749
732,24.0
733,26.0
734,25.9977355047036
798,24.0
799,26.0
800,25.844611226485135
864,24.0
865,26.0
866,25.7070394084335
930,24.0
931,26.0
2,1, 6, 1, 0, 9,45.00,60.00,Wednesday
7,25.5
18,11.0
19,5.0
20,11.0
21,5.0
22,20.0
1079,5.33069633621767
1080,5.015979355534071
1081,5.092912877716614
1082,5.315943033296705
1083,5.667036675719416
465,25.487185009498212
600,0.0
601,0.0
602,25.997649129191696
666,24.0
667,26.0
668,25.998396444226707
732,24.0
733,26.0
734,25.99860667184571
798,24.0
799,26.0
800,25.997249853054715
864,24.0
865,26.0
866,25.99590705702393
930,24.0
931,26.0
2,1, 6, 1, 0,10, 0.00,15.00,Wednesday
7,25.8
18,11.0
19,5.0
20,11.0
21,5.0
22,20.0
1079,5.19083328221528
1080,5.000102542965962
1081,5.043048664855533
1082,5.176373771686443
1083,5.496192539248881
465,25.906865759496863
600,0.0
601,0.0
602,25.9974686557808
666,24.0
667,26.0
668,25.996971803866618
732,24.0
733,26.0
734,25.997269829540794
798,24.0
799,26.0
800,25.997410166696582
864,24.0
865,26.0
866,25.997577343554312
930,24.0
931,26.0
2,1, 6, 1, 0,10,15.00,30.00,Wednesday
7,26.1
18,11.0
19,5.0
20,11.0
21,5.0
22,20.0
1079,5.1361200220448495
1080,5.003377175260937
1081,5.032702242803779
1082,5.121596448593081
1083,5.413379510434524
465,26.41279038470169
600,0.0
601,0.0
602,25.997492957751355
666,24.0
667,26.0
668,25.997207609045674
732,24.0
733,26.0
734,25.997394046527283
798,24.0
799,26.0
800,25.99743308888555
864,24.0
865,26.0
866,25.997585312585613
930,24.0
931,26.0
2,1, 6, 1, 0,10,30.00,45.00,Wednesday
7,26.4
18,11.0
19,5.0
20,11.0
21,5.0
22,20.0
1079,5.1044797749146795
1080,5.006308740639312
1081,5.028272374845159
1082,5.090827292343732
1083,5.357419438324342
465,26.78285907936764
600,0.0
601,0.0
602,25.997380204221034
666,24.0
667,26.0
668,25.99731441496332
732,24.0
733,26.0
734,25.997413789468254
798,24.0
799,26.0
800,25.997302911304804
864,24.0
865,26.0
866,25.99740614969179
930,24.0
931,26.0
2,1, 6, 1, 0,10,45.00,60.00,Wednesday
7,26.7
18,11.0
19,5.0
20,11.0
21,5.0
22,20.0
1079,5.085777407030463
1080,5.008566194210246
1081,5.030080663732662
1082,5.073307380756418
1083,5.311910319591945
465,27.163371555155322
600,0.0
601,0.0
602,25.99737918231106
666,24.0
667,26.0
668,25.997360107269774
732,24.0
733,26.0
734,25.997443829948843
798,24.0
799,26.0
800,25.99730223217285
864,24.0
865,26.0
866,25.997370626263386
930,24.0
931,26.0
2,1, 6, 1, 0,11, 0.00,15.00,Wednesday
7,26.974999999999998
18,11.0
19,5.0
20,11.0
21,5.0
22,20.0
1079,5.065864605329253
1080,5.012757388792608
1081,5.027915314866689
1082,5.054491797856343
1083,5.269753986168212
465,27.555962367889634
600,0.0
601,0.0
602,25.99739261517336
666,24.0
667,26.0
668,25.99742477167021
732,24.0
733,26.0
734,25.997482754214154
798,24.0
799,26.0
800,25.99731383364648
864,24.0
865,26.0
866,25.997350391075784
930,24.0
931,26.0
2,1, 6, 1, 0,11,15.00,30.00,Wednesday
7,27.25
18,11.0
19,5.0
20,11.0
21,5.0
22,20.0
1079,5.053536702168614
1080,5.013277979986853
1081,5.029734614994368
1082,5.043033776393742
1083,5.249801964473832
465,27.904667384208018
600,0.0
601,0.0
602,25.997420894391684
666,24.0
667,26.0
668,25.997482745545135
732,24.0
733,26.0
734,25.99751839650427
798,24.0
799,26.0
800,25.997341916889077
864,24.0
865,26.0
866,25.997347579120174
930,24.0
931,26.0
2,1, 6, 1, 0,11,30.00,45.00,Wednesday
7,27.525000000000002
18,11.0
19,5.0
20,11.0
21,5.0
22,20.0
1079,5.049386466886219
1080,5.011012043380049
1081,5.031117304320944
1082,5.0393098470105855
1083,5.2395690078825226
465,28.214772709618586
600,0.0
601,0.0
602,25.997449952661178
666,24.0
667,26.0
668,25.997524371806836
732,24.0
733,26.0
734,25.997538060539767
798,24.0
799,26.0
800,25.997371962161505
864,24.0
865,26.0
866,25.99734910488398
930,24.0
931,26.0
2,1, 6, 1, 0,11,45.00,60.00,Wednesday
7,27.8
18,11.0
19,5.0
20,11.0
21,5.0
22,20.0
1079,5.046928480867052
1080,5.00781516569424
1081,5.031458189626676
1082,5.037370657114067
1083,5.233877759166532
465,28.496775938096526
600,0.0
601,0.0
602,25.995687383419604
666,24.0
667,26.0
668,25.995944421138812
732,24.0
733,26.0
734,25.99586916521967
798,24.0
799,26.0
800,25.99559588392246
864,24.0
865,26.0
866,25.995291317559644
930,24.0
931,26.0
2,1, 6, 1, 0,12, 0.00,15.00,Wednesday
7,28.1
18,8.8
19,4.0
20,8.8
21,4.0
22,16.0
1079,5.058624385689484
1080,5.001349242233289
1081,5.04426365486151
1082,5.048476631266652
1083,5.260940582685421
465,28.72826006037694
600,0.0
601,0.0
602,25.99572308486397
666,24.0
667,26.0
668,25.99592871429875
732,24.0
733,26.0
734,25.995880297431377
798,24.0
799,26.0
800,25.995639653919024
864,24.0
865,26.0
866,25.995355251999502
930,24.0
931,26.0
2,1, 6, 1, 0,12,15.00,30.00,Wednesday
7,28.4
18,8.8
19,4.0
20,8.8
21,4.0
22,16.0
1079,5.065012005628219
1080,5.000023707926076
1081,5.053153100230261
1082,5.055023488014626
1083,5.274466736347932
465,28.919429219243582
600,0.0
601,0.0
602,25.995829500859042
666,24.0
667,26.0
668,25.99606102453511
732,24.0
733,26.0
734,25.995968989687793
798,24.0
799,26.0
800,25.995753688728357
864,24.0
865,26.0
866,25.99542575717459
930,24.0
931,26.0
2,1, 6, 1, 0,12,30.00,45.00,Wednesday
7,28.7
18,8.8
19,4.0
20,8.8
21,4.0
22,16.0
1079,5.072494588961121
1080,5.002562981255949
1081,5.063120938853814
1082,5.062634450801241
1083,5.2940044771315655
465,29.13009624152185
600,0.0
601,0.0
602,25.995956051109747
666,24.0
667,26.0
668,25.99622061199534
732,24.0
733,26.0
734,25.99607947315494
798,24.0
799,26.0
800,25.99588756706979
864,24.0
865,26.0
866,25.99551991249674
930,24.0
931,26.0
2,1, 6, 1, 0,12,45.00,60.00,Wednesday
7,29.0
18,8.8
19,4.0
20,8.8
21,4.0
22,16.0
1079,5.078124029327228
1080,5.008974174505482
1081,5.0713135823175435
1082,5.068791082520306
1083,5.3111206566540545
465,29.346475964699778
600,0.0
601,0.0
602,25.99605737921892
666,24.0
667,26.0
668,25.99634210470908
732,24.0
733,26.0
734,25.996164402204137
798,24.0
799,26.0
800,25.99599455034437
864,24.0
865,26.0
866,25.995600286515955
930,24.0
931,26.0
2,1, 6, 1, 0,13, 0.00,15.00,Wednesday
7,29.125
18,4.4
19,2.0
20,4.4
21,2.0
22,8.0
1079,5.132474428614884
1080,5.0474199959957105
1081,5.129573594982219
1082,5.124033751094984
1083,5.415512558984503
465,29.55673671684051
600,0.0
601,0.0
602,25.99689674585945
666,24.0
667,26.0
668,25.997140824494085
732,24.0
733,26.0
734,25.99697992173837
798,24.0
799,26.0
800,25.99686043028257
864,24.0
865,26.0
866,25.996556960088565
930,24.0
931,26.0
2,1, 6, 1, 0,13,15.00,30.00,Wednesday
7,29.25
18,4.4
19,2.0
20,4.4
21,2.0
22,8.0
1079,5.155978386612915
1080,5.08113546475839
1081,5.158368003176193
1082,5.1508593668172296
1083,5.453921724495231
465,29.76614939754395
600,0.0
601,0.0
602,25.99741613918877
666,24.0
667,26.0
668,25.9976982806814
732,24.0
733,26.0
734,25.997488938997456
798,24.0
799,26.0
800,25.997393195878846
864,24.0
865,26.0
866,25.997024758295904
930,24.0
931,26.0
2,1, 6, 1, 0,13,30.00,45.00,Wednesday
7,29.375
18,4.4
19,2.0
20,4.4
21,2.0
22,8.0
1079,5.171759209624241
1080,5.109000377444318
1081,5.18000146620038
1082,5.170008637464406
1083,5.487558172378925
465,29.960364215543894
600,0.0
601,0.0
602,25.997867492918523
666,24.0
667,26.0
668,25.998155254310884
732,24.0
733,26.0
734,25.997929086964508
798,24.0
799,26.0
800,25.997851700465848
864,24.0
865,26.0
866,25.997433509118338
930,24.0
931,26.0
2,1, 6, 1, 0,13,45.00,60.00,Wednesday
7,29.5
18,4.4
19,2.0
20,4.4
21,2.0
22,8.0
1079,5.170797311863652
1080,5.117175524538482
1081,5.184556767473055
1082,5.160076116854029
1083,5.496114797314306
465,30.134339479044954
600,0.0
601,0.0
602,25.9982217010671
666,24.0
667,26.0
668,25.998478363481205
732,24.0
733,26.0
734,25.998271112791304
798,24.0
799,26.0
800,25.998191545419072
864,24.0
865,26.0
866,25.997773649067557
930,24.0
931,26.0
2,1, 6, 1, 0,14, 0.00,15.00,Wednesday
7,29.6
18,8.8
19,4.0
20,8.8
21,4.0
22,16.0
1079,5.109580074773902
1080,5.073810167760044
1081,5.123557309790556
1082,5.085742983648274
1083,5.400758131333163
465,30.23189841045454
600,0.0
601,0.0
602,25.998265880972934
666,24.0
667,26.0
668,25.99851147385712
732,24.0
733,26.0
734,25.99830303877214
798,24.0
799,26.0
800,25.998201690044223
864,24.0
865,26.0
866,25.99770751080461
930,24.0
931,26.0
2,1, 6, 1, 0,14,15.00,30.00,Wednesday
7,29.7
18,8.8
19,4.0
20,8.8
21,4.0
22,16.0
1079,5.072578015707094
1080,5.049909173164465
1081,5.0874294023280555
1082,5.041102747281684
1083,5.346398157454729
465,30.33703531169897
600,0.0
601,0.0
602,25.99823874781057
666,24.0
667,26.0
668,25.998417998585442
732,24.0
733,26.0
734,25.998266829890227
798,24.0
799,26.0
800,25.998137323593014
864,24.0
865,26.0
866,25.99773336040574
930,24.0
931,26.0
2,1, 6, 1, 0,14,30.00,45.00,Wednesday
7,29.799999999999997
18,8.8
19,4.0
20,8.8
21,4.0
22,16.0
1079,5.044726203327073
1080,5.032222109045279
1081,5.059788018667064
1082,5.013626070518271
1083,5.293906048080288
465,30.45735977704524
600,0.0
601,0.0
602,25.998092092945086
666,24.0
667,26.0
668,25.998205118630786
732,24.0
733,26.0
734,25.998115551552214
798,24.0
799,26.0
800,25.997953040738143
864,24.0
865,26.0
866,25.997659356307313
930,24.0
931,26.0
2,1, 6, 1, 0,14,45.00,60.00,Wednesday
7,29.9
18,8.8
19,4.0
20,8.8
21,4.0
22,16.0
1079,5.025162781404148
1080,5.019830034868093
1081,5.039456080736997
1082,5.001328332886487
1083,5.24749474473812
465,30.57026099030242
600,0.0
601,0.0
602,25.997936098452648
666,24.0
667,26.0
668,25.998000124561088
732,24.0
733,26.0
734,25.99795686514574
798,24.0
799,26.0
800,25.99776776290174
864,24.0
865,26.0
866,25.997558425634995
930,24.0
931,26.0
2,1, 6, 1, 0,15, 0.00,15.00,Wednesday
7,30.025
18,11.0
19,5.0
20,11.0
21,5.0
22,20.0
1079,5.004425995659915
1080,5.00363511462821
1081,5.0125007639237396
1082,5.007168296277129
1083,5.17053964832138
465,30.71590404338893
600,0.0
601,0.0
602,25.99779230232619
666,24.0
667,26.0
668,25.99781848325571
732,24.0
733,26.0
734,25.99780791621474
798,24.0
799,26.0
800,25.997602191929143
864,24.0
865,26.0
866,25.997438304628247
930,24.0
931,26.0
2,1, 6, 1, 0,15,15.00,30.00,Wednesday
7,30.15
18,11.0
19,5.0
20,11.0
21,5.0
22,20.0
1079,5.000008594274277
1080,5.000004044808463
1081,5.0023003773346915
1082,5.032908704916636
1083,5.124220507535981
465,30.818151343217906
600,0.0
601,0.0
602,25.99761424171449
666,24.0
667,26.0
668,25.99761178640751
732,24.0
733,26.0
734,25.997626993358192
798,24.0
799,26.0
800,25.99740856187326
864,24.0
865,26.0
866,25.997281911818824
930,24.0
931,26.0
2,1, 6, 1, 0,15,30.00,45.00,Wednesday
7,30.275
18,11.0
19,5.0
20,11.0
21,5.0
22,20.0
1079,5.004284568781927
1080,5.002583338390039
1081,5.000087989167639
1082,5.073511943558088
1083,5.083514341326264
465,30.890683225758124
600,0.0
601,0.0
602,25.997433916874098
666,24.0
667,26.0
668,25.997408444189762
732,24.0
733,26.0
734,25.997444195472028
798,24.0
799,26.0
800,25.997217266582737
864,24.0
865,26.0
866,25.9971102258679
930,24.0
931,26.0
2,1, 6, 1, 0,15,45.00,60.00,Wednesday
7,30.4
18,11.0
19,5.0
20,11.0
21,5.0
22,20.0
1079,5.014405276010237
1080,5.009447013810686
1081,5.003491277228818
1082,5.1242271676432125
1083,5.0565681548769845
465,30.954501564416436
600,0.0
601,0.0
602,25.99731012078028
666,24.0
667,26.0
668,25.99726650765194
732,24.0
733,26.0
734,25.997316384400232
798,24.0
799,26.0
800,25.99709480680542
864,24.0
865,26.0
866,25.99697706633996
930,24.0
931,26.0
2,1, 6, 1, 0,16, 0.00,15.00,Wednesday
7,30.275
18,11.0
19,5.0
20,11.0
21,5.0
22,20.0
1079,5.022846018031288
1080,5.014461332201591
1081,5.007036017225644
1082,5.166181934557585
1083,5.0403488664992295
465,31.069312685098893
600,0.0
601,0.0
602,25.997178985904576
666,24.0
667,26.0
668,25.99712598950656
732,24.0
733,26.0
734,25.997193669134564
798,24.0
799,26.0
800,25.996943858853843
864,24.0
865,26.0
866,25.9968902198374
930,24.0
931,26.0
2,1, 6, 1, 0,16,15.00,30.00,Wednesday
7,30.15
18,11.0
19,5.0
20,11.0
21,5.0
22,20.0
1079,5.032536399996701
1080,5.020398707647431
1081,5.011780928114234
1082,5.211510757942264
1083,5.0265498324049815
465,31.147627787072143
600,0.0
601,0.0
602,25.997020499861577
666,24.0
667,26.0