Program Version,EnergyPlus, Version 23.2.0-7636e6b3e9, YMD=2025.07.09 22:29
1,5,Environment Title[],Latitude[deg],Longitude[deg],Time Zone[],Elevation[m]
2,8,Day of Simulation[],Month[],Day of Month[],DST Indicator[1=yes 0=no],Hour[],StartMinute[],EndMinute[],DayType
3,5,Cumulative Day of Simulation[],Month[],Day of Month[],DST Indicator[1=yes 0=no],DayType  ! When Daily Meters Requested
4,2,Cumulative Days of Simulation[],Month[]  ! When Monthly Meters Requested
5,1,Cumulative Days of Simulation[] ! When Run Period Meters Requested
6,1,Calendar Year of Simulation[] ! When Annual Meters Requested
24,1,Electricity:Facility [J] !TimeStep
36,1,Electricity:Building [J] !TimeStep
72,1,InteriorLights:Electricity [J] !TimeStep
1207,1,Electricity:HVAC [J] !TimeStep
1270,1,Electricity:Plant [J] !TimeStep
29,11,Electricity:Facility [J] !RunPeriod [Value,Min,Month,Day,Hour,Minute,Max,Month,Day,Hour,Minute]
41,11,Electricity:Building [J] !RunPeriod [Value,Min,Month,Day,Hour,Minute,Max,Month,Day,Hour,Minute]
77,11,InteriorLights:Electricity [J] !RunPeriod [Value,Min,Month,Day,Hour,Minute,Max,Month,Day,Hour,Minute]
1212,11,Electricity:HVAC [J] !RunPeriod [Value,Min,Month,Day,Hour,Minute,Max,Month,Day,Hour,Minute]
1275,11,Electricity:Plant [J] !RunPeriod [Value,Min,Month,Day,Hour,Minute,Max,Month,Day,Hour,Minute]
End of Data Dictionary
1,RUN PERIOD 2,  36.60, 117.05,   8.00, 170.30
2,1, 6, 1, 0, 1, 0.00,15.00,Wednesday
24,4708473.766012155
36,427500.0
72,337500.0
1207,589606.758008379
1270,3691367.0080037764
2,1, 6, 1, 0, 1,15.00,30.00,Wednesday
24,4702707.17763121
36,427500.0
72,337500.0
1207,589606.758008379
1270,3685600.4196228306
2,1, 6, 1, 0, 1,30.00,45.00,Wednesday
24,4697439.504111537
36,427500.0
72,337500.0
1207,589606.758008379
1270,3680332.7461031578
2,1, 6, 1, 0, 1,45.00,60.00,Wednesday
24,4692610.238091035
36,427500.0
72,337500.0
1207,589606.758008379
1270,3675503.4800826567
2,1, 6, 1, 0, 2, 0.00,15.00,Wednesday
24,4693153.637878487
36,427500.0
72,337500.0
1207,589606.758008379
1270,3676046.879870109
2,1, 6, 1, 0, 2,15.00,30.00,Wednesday
24,4693681.117110785
36,427500.0
72,337500.0
1207,589606.758008379
1270,3676574.359102406
2,1, 6, 1, 0, 2,30.00,45.00,Wednesday
24,4694191.584519743
36,427500.0
72,337500.0
1207,589606.758008379
1270,3677084.826511364
2,1, 6, 1, 0, 2,45.00,60.00,Wednesday
24,4694684.006895939
36,427500.0
72,337500.0
1207,589606.758008379
1270,3677577.248887561
2,1, 6, 1, 0, 3, 0.00,15.00,Wednesday
24,4694949.504190774
36,427500.0
72,337500.0
1207,589606.758008379
1270,3677842.7461823947
2,1, 6, 1, 0, 3,15.00,30.00,Wednesday
24,4695193.934784756
36,427500.0
72,337500.0
1207,589606.758008379
1270,3678087.176776377
2,1, 6, 1, 0, 3,30.00,45.00,Wednesday
24,4695416.458074376
36,427500.0
72,337500.0
1207,589606.758008379
1270,3678309.700065998
2,1, 6, 1, 0, 3,45.00,60.00,Wednesday
24,4695616.486345331
36,427500.0
72,337500.0
1207,589606.758008379
1270,3678509.728336952
2,1, 6, 1, 0, 4, 0.00,15.00,Wednesday
24,4695133.3762987545
36,427500.0
72,337500.0
1207,589606.758008379
1270,3678026.6182903755
2,1, 6, 1, 0, 4,15.00,30.00,Wednesday
24,4694646.204719883
36,427500.0
72,337500.0
1207,589606.758008379
1270,3677539.4467115053
2,1, 6, 1, 0, 4,30.00,45.00,Wednesday
24,4694154.991248866
36,427500.0
72,337500.0
1207,589606.758008379
1270,3677048.2332404866
2,1, 6, 1, 0, 4,45.00,60.00,Wednesday
24,4693659.806504118
36,427500.0
72,337500.0
1207,589606.758008379
1270,3676553.0484957392
2,1, 6, 1, 0, 5, 0.00,15.00,Wednesday
24,4692940.423711312
36,427500.0
72,337500.0
1207,589606.758008379
1270,3675833.665702933
2,1, 6, 1, 0, 5,15.00,30.00,Wednesday
24,4692229.941472088
36,427500.0
72,337500.0
1207,589606.758008379
1270,3675123.183463709
2,1, 6, 1, 0, 5,30.00,45.00,Wednesday
24,4691528.173137314
36,427500.0
72,337500.0
1207,589606.758008379
1270,3674421.4151289347
2,1, 6, 1, 0, 5,45.00,60.00,Wednesday
24,4690834.956489093
36,427500.0
72,337500.0
1207,589606.758008379
1270,3673728.1984807136
2,1, 6, 1, 0, 6, 0.00,15.00,Wednesday
24,4689970.893548511
36,427500.0
72,337500.0
1207,589606.758008379
1270,3672864.135540132
2,1, 6, 1, 0, 6,15.00,30.00,Wednesday
24,4689117.937258786
36,427500.0
72,337500.0
1207,589606.758008379
1270,3672011.1792504075
2,1, 6, 1, 0, 6,30.00,45.00,Wednesday
24,4688283.850149606
36,427500.0
72,337500.0
1207,589606.758008379
1270,3671177.0921412283
2,1, 6, 1, 0, 6,45.00,60.00,Wednesday
24,4687464.126085793
36,427500.0
72,337500.0
1207,589606.758008379
1270,3670357.3680774136
2,1, 6, 1, 0, 7, 0.00,15.00,Wednesday
24,4687632.232722467
36,427500.0
72,337500.0
1207,589606.758008379
1270,3670525.4747140887
2,1, 6, 1, 0, 7,15.00,30.00,Wednesday
24,4687800.984636138
36,427500.0
72,337500.0
1207,589606.758008379
1270,3670694.22662776
2,1, 6, 1, 0, 7,30.00,45.00,Wednesday
24,4687970.374514963
36,427500.0
72,337500.0
1207,589606.758008379
1270,3670863.6165065845
2,1, 6, 1, 0, 7,45.00,60.00,Wednesday
24,4688140.429642734
36,427500.0
72,337500.0
1207,589606.758008379
1270,3671033.671634355
2,1, 6, 1, 0, 8, 0.00,15.00,Wednesday
24,4688988.353931832
36,427500.0
72,337500.0
1207,589606.758008379
1270,3671881.595923454
2,1, 6, 1, 0, 8,15.00,30.00,Wednesday
24,4689857.639542158
36,427500.0
72,337500.0
1207,589606.758008379
1270,3672750.8815337797
2,1, 6, 1, 0, 8,30.00,45.00,Wednesday
24,4690740.601015273
36,427500.0
72,337500.0
1207,589606.758008379
1270,3673633.8430068945
2,1, 6, 1, 0, 8,45.00,60.00,Wednesday
24,4691641.977912662
36,427500.0
72,337500.0
1207,589606.758008379
1270,3674535.2199042826
2,1, 6, 1, 0, 9, 0.00,15.00,Wednesday
24,12141210.3010596
36,7875000.0
72,6075000.0
1207,589606.758008379
1270,3676603.5430512195
2,1, 6, 1, 0, 9,15.00,30.00,Wednesday
24,12143377.763426896
36,7875000.0
72,6075000.0
1207,589606.758008379
1270,3678771.0054185153
2,1, 6, 1, 0, 9,30.00,45.00,Wednesday
24,12145651.262339048
36,7875000.0
72,6075000.0
1207,589606.758008379
1270,3681044.504330668
2,1, 6, 1, 0, 9,45.00,60.00,Wednesday
24,12148038.790120333
36,7875000.0
72,6075000.0
1207,589606.758008379
1270,3683432.032111952
2,1, 6, 1, 0,10, 0.00,15.00,Wednesday
24,14739478.186016578
36,10462500.0
72,6412500.0
1207,589606.758008379
1270,3687371.4280081983
2,1, 6, 1, 0,10,15.00,30.00,Wednesday
24,14743743.715123728
36,10462500.0
72,6412500.0
1207,589606.758008379
1270,3691636.957115347
2,1, 6, 1, 0,10,30.00,45.00,Wednesday
24,14752315.107161807
36,10462500.0
72,6412500.0
1207,593545.1314678343
1270,3696269.975693971
2,1, 6, 1, 0,10,45.00,60.00,Wednesday
24,14935808.82867631
36,10462500.0
72,6412500.0
1207,600474.9306929354
1270,3872833.8979833727
2,1, 6, 1, 0,11, 0.00,15.00,Wednesday
24,15501001.554505324
36,10800000.0
72,6750000.0
1207,603008.739341785
1270,4097992.8151635393
2,1, 6, 1, 0,11,15.00,30.00,Wednesday
24,15950968.608672354
36,10800000.0
72,6750000.0
1207,606461.3556807006
1270,4544507.252991652
2,1, 6, 1, 0,11,30.00,45.00,Wednesday
24,16299797.447942149
36,10800000.0
72,6750000.0
1207,610418.4229583502
1270,4889379.024983798
2,1, 6, 1, 0,11,45.00,60.00,Wednesday
24,16846409.01741193
36,10800000.0
72,6750000.0
1207,615253.7365184398
1270,5431155.280893486
2,1, 6, 1, 0,12, 0.00,15.00,Wednesday
24,17170853.694289222
36,10462500.0
72,6412500.0
1207,629849.0009556253
1270,6078504.693333598
2,1, 6, 1, 0,12,15.00,30.00,Wednesday
24,16861872.85735625
36,10462500.0
72,6412500.0
1207,622485.9346577928
1270,5776886.922698455
2,1, 6, 1, 0,12,30.00,45.00,Wednesday
24,17132822.24314647
36,10462500.0
72,6412500.0
1207,622296.6910771215
1270,6048025.552069348
2,1, 6, 1, 0,12,45.00,60.00,Wednesday
24,16941769.23955845
36,10462500.0
72,6412500.0
1207,613141.6959893464
1270,5866127.543569105
2,1, 6, 1, 0,13, 0.00,15.00,Wednesday
24,15620323.461196598
36,9450000.0
72,5400000.0
1207,609592.2428087026
1270,5560731.218387895
2,1, 6, 1, 0,13,15.00,30.00,Wednesday
24,15534409.524940565
36,9450000.0
72,5400000.0
1207,609885.2134321611
1270,5474524.311508404
2,1, 6, 1, 0,13,30.00,45.00,Wednesday
24,14765418.82924933
36,9450000.0
72,5400000.0
1207,600050.0234595576
1270,4715368.80578977
2,1, 6, 1, 0,13,45.00,60.00,Wednesday
24,15331769.95981301
36,9450000.0
72,5400000.0
1207,616014.7060599299
1270,5265755.253753081
2,1, 6, 1, 0,14, 0.00,15.00,Wednesday
24,15418561.707618618
36,10125000.0
72,6075000.0
1207,602075.9933094252
1270,4691485.714309191
2,1, 6, 1, 0,14,15.00,30.00,Wednesday
24,16225336.837588761
36,10125000.0
72,6075000.0
1207,625566.7394400468
1270,5474770.098148713
2,1, 6, 1, 0,14,30.00,45.00,Wednesday
24,15966972.698483584
36,10125000.0
72,6075000.0
1207,614110.0867553516
1270,5227862.6117282305
2,1, 6, 1, 0,14,45.00,60.00,Wednesday
24,15885194.729933748
36,10125000.0
72,6075000.0
1207,616148.369033853
1270,5144046.3608998945
2,1, 6, 1, 0,15, 0.00,15.00,Wednesday
24,15912793.124221435
36,10350000.0
72,6750000.0
1207,614806.7742242472
1270,4947986.349997186
2,1, 6, 1, 0,15,15.00,30.00,Wednesday
24,15632140.835748004
36,10350000.0
72,6750000.0
1207,610379.9028541072
1270,4671760.9328938965
2,1, 6, 1, 0,15,30.00,45.00,Wednesday
24,15836521.232996318
36,10350000.0
72,6750000.0
1207,619045.1698139564
1270,4867476.063182362
2,1, 6, 1, 0,15,45.00,60.00,Wednesday
24,15548256.155348608
36,10350000.0
72,6750000.0
1207,614881.5972080862
1270,4583374.55814052
2,1, 6, 1, 0,16, 0.00,15.00,Wednesday
24,15057802.761857525
36,9900000.0
72,6750000.0
1207,616167.6060651103
1270,4541635.155792412
2,1, 6, 1, 0,16,15.00,30.00,Wednesday
24,14886102.490145287
36,9900000.0
72,6750000.0
1207,614606.2489078974
1270,4371496.241237388
2,1, 6, 1, 0,16,30.00,45.00,Wednesday
24,14804527.228546835
36,9900000.0
72,6750000.0
1207,613605.7451853112
1270,4290921.4833615245
2,1, 6, 1, 0,16,45.00,60.00,Wednesday
24,14658910.534612678
36,9900000.0
72,6750000.0
1207,614197.2877490049
1270,4144713.2468636716
2,1, 6, 1, 0,17, 0.00,15.00,Wednesday
24,13306894.254588531
36,9000000.0
72,6750000.0
1207,602774.9359204242
1270,3704119.318668106
2,1, 6, 1, 0,17,15.00,30.00,Wednesday
24,13442210.690897016
36,9000000.0
72,6750000.0
1207,606013.883232894
1270,3836196.807664124
2,1, 6, 1, 0,17,30.00,45.00,Wednesday
24,13281340.626602363
36,9000000.0
72,6750000.0
1207,600976.8415432642
1270,3680363.7850590963
2,1, 6, 1, 0,17,45.00,60.00,Wednesday
24,13325101.836430008
36,9000000.0
72,6750000.0
1207,603345.5696062043
1270,3721756.266823804
2,1, 6, 1, 0,18, 0.00,15.00,Wednesday
24,13279295.882846106
36,9000000.0
72,6750000.0
1207,600220.6871036316
1270,3679075.1957424753
2,1, 6, 1, 0,18,15.00,30.00,Wednesday
24,13277108.253298733
36,9000000.0
72,6750000.0
1207,597915.268724588
1270,3679192.9845741447
2,1, 6, 1, 0,18,30.00,45.00,Wednesday
24,13280743.557794096
36,9000000.0
72,6750000.0
1207,601433.3303119035
1270,3679310.2274821913
2,1, 6, 1, 0,18,45.00,60.00,Wednesday
24,13276901.774689516
36,9000000.0
72,6750000.0
1207,597474.8666709682
1270,3679426.908018549
2,1, 6, 1, 0,19, 0.00,15.00,Wednesday
24,9672823.753623797
36,5400000.0
72,4050000.0
1207,592608.7074003776
1270,3680215.0462234174
2,1, 6, 1, 0,19,15.00,30.00,Wednesday
24,9670623.190962534
36,5400000.0
72,4050000.0
1207,589606.758008379
1270,3681016.4329541535
2,1, 6, 1, 0,19,30.00,45.00,Wednesday
24,9671438.27486668
36,5400000.0
72,4050000.0
1207,589606.758008379
1270,3681831.5168582974
2,1, 6, 1, 0,19,45.00,60.00,Wednesday
24,9672267.339813087
36,5400000.0
72,4050000.0
1207,589606.758008379
1270,3682660.581804707
2,1, 6, 1, 0,20, 0.00,15.00,Wednesday
24,8323596.602861433
36,4050000.0
72,2700000.0
1207,589606.758008379
1270,3683989.8448530543
2,1, 6, 1, 0,20,15.00,30.00,Wednesday
24,8324962.875535234
36,4050000.0
72,2700000.0
1207,589606.758008379
1270,3685356.117526856
2,1, 6, 1, 0,20,30.00,45.00,Wednesday
24,8326367.550633351
36,4050000.0
72,2700000.0
1207,589606.758008379
1270,3686760.7926249723
2,1, 6, 1, 0,20,45.00,60.00,Wednesday
24,8327812.161469946
36,4050000.0
72,2700000.0
1207,589606.758008379
1270,3688205.4034615667
2,1, 6, 1, 0,21, 0.00,15.00,Wednesday
24,8329167.229185125
36,4050000.0
72,2700000.0
1207,589606.758008379
1270,3689560.471176746
2,1, 6, 1, 0,21,15.00,30.00,Wednesday
24,8330557.042900566
36,4050000.0
72,2700000.0
1207,589606.758008379
1270,3690950.284892187
2,1, 6, 1, 0,21,30.00,45.00,Wednesday
24,8331982.931858071
36,4050000.0
72,2700000.0
1207,589606.758008379
1270,3692376.173849692
2,1, 6, 1, 0,21,45.00,60.00,Wednesday
24,8333446.194139929
36,4050000.0
72,2700000.0
1207,589606.758008379
1270,3693839.4361315495
2,1, 6, 1, 0,22, 0.00,15.00,Wednesday
24,4711842.023388513
36,427500.0
72,337500.0
1207,589606.758008379
1270,3694735.265380134
2,1, 6, 1, 0,22,15.00,30.00,Wednesday
24,4712749.820174226
36,427500.0
72,337500.0
1207,589606.758008379
1270,3695643.062165847
2,1, 6, 1, 0,22,30.00,45.00,Wednesday
24,4713669.92665066
36,427500.0
72,337500.0
1207,589606.758008379
1270,3696563.1686422816
2,1, 6, 1, 0,22,45.00,60.00,Wednesday
24,4714602.506937654
36,427500.0
72,337500.0
1207,589606.758008379
1270,3697495.7489292757
2,1, 6, 1, 0,23, 0.00,15.00,Wednesday
24,4714903.707399464
36,427500.0
72,337500.0
1207,589606.758008379
1270,3697796.949391086
2,1, 6, 1, 0,23,15.00,30.00,Wednesday
24,4715201.601920523
36,427500.0
72,337500.0
1207,589606.758008379
1270,3698094.8439121437
2,1, 6, 1, 0,23,30.00,45.00,Wednesday
24,4715490.994442209
36,427500.0
72,337500.0
1207,589606.758008379
1270,3698384.2364338296
2,1, 6, 1, 0,23,45.00,60.00,Wednesday
24,4715783.701973495
36,427500.0
72,337500.0
1207,589606.758008379
1270,3698676.943965116
2,1, 6, 1, 0,24, 0.00,15.00,Wednesday
24,4715557.880283381
36,427500.0
72,337500.0
1207,589606.758008379
1270,3698451.122275002
2,1, 6, 1, 0,24,15.00,30.00,Wednesday
24,4715324.958344448
36,427500.0
72,337500.0
1207,589606.758008379
1270,3698218.2003360693
2,1, 6, 1, 0,24,30.00,45.00,Wednesday
24,4715074.5096024005
36,427500.0
72,337500.0
1207,589606.758008379
1270,3697967.7515940224
2,1, 6, 1, 0,24,45.00,60.00,Wednesday
24,4714811.783402315
36,427500.0
72,337500.0
1207,589606.758008379
1270,3697705.0253939372
2,2, 6, 2, 0, 1, 0.00,15.00,Thursday
24,4713478.290793729
36,427500.0
72,337500.0
1207,589606.758008379
1270,3696371.53278535
2,2, 6, 2, 0, 1,15.00,30.00,Thursday
24,4712165.668139788
36,427500.0
72,337500.0
1207,589606.758008379
1270,3695058.9101314093
2,2, 6, 2, 0, 1,30.00,45.00,Thursday
24,4710873.657455941
36,427500.0
72,337500.0
1207,589606.758008379
1270,3693766.8994475626
2,2, 6, 2, 0, 1,45.00,60.00,Thursday
24,4709601.920515424
36,427500.0
72,337500.0
1207,589606.758008379
1270,3692495.1625070455
2,2, 6, 2, 0, 2, 0.00,15.00,Thursday
24,4707745.343005234
36,427500.0
72,337500.0
1207,589606.758008379
1270,3690638.5849968563
2,2, 6, 2, 0, 2,15.00,30.00,Thursday
24,4705939.523640028
36,427500.0
72,337500.0
1207,589606.758008379
1270,3688832.765631649
2,2, 6, 2, 0, 2,30.00,45.00,Thursday
24,4704182.654619508
36,427500.0
72,337500.0
1207,589606.758008379
1270,3687075.8966111294
2,2, 6, 2, 0, 2,45.00,60.00,Thursday
24,4702473.089285412
36,427500.0
72,337500.0
1207,589606.758008379
1270,3685366.331277033
2,2, 6, 2, 0, 3, 0.00,15.00,Thursday
24,4700301.2480388405
36,427500.0
72,337500.0
1207,589606.758008379
1270,3683194.4900304615
2,2, 6, 2, 0, 3,15.00,30.00,Thursday
24,4698208.436381561
36,427500.0
72,337500.0
1207,589606.758008379
1270,3681101.6783731827
2,2, 6, 2, 0, 3,30.00,45.00,Thursday
24,4696190.566812394
36,427500.0
72,337500.0
1207,589606.758008379
1270,3679083.808804016
2,2, 6, 2, 0, 3,45.00,60.00,Thursday
24,4694243.92003013
36,427500.0
72,337500.0
1207,589606.758008379
1270,3677137.162021751
2,2, 6, 2, 0, 4, 0.00,15.00,Thursday
24,4691886.732228495
36,427500.0
72,337500.0
1207,589606.758008379
1270,3674779.974220117
2,2, 6, 2, 0, 4,15.00,30.00,Thursday
24,4689639.574553296
36,427500.0
72,337500.0
1207,589606.758008379
1270,3672532.816544917
2,2, 6, 2, 0, 4,30.00,45.00,Thursday
24,4687490.834497944
36,427500.0
72,337500.0
1207,589606.758008379
1270,3670384.0764895654
2,2, 6, 2, 0, 4,45.00,60.00,Thursday
24,4685441.91791694
36,427500.0
72,337500.0
1207,589606.758008379
1270,3668335.1599085615
2,2, 6, 2, 0, 5, 0.00,15.00,Thursday
24,4683627.831223574
36,427500.0
72,337500.0
1207,589606.758008379
1270,3666521.0732151954
2,2, 6, 2, 0, 5,15.00,30.00,Thursday
24,4681889.065545693
36,427500.0
72,337500.0
1207,589606.758008379
1270,3664782.307537314
2,2, 6, 2, 0, 5,30.00,45.00,Thursday
24,4680221.202242469
36,427500.0
72,337500.0
1207,589606.758008379
1270,3663114.4442340913
2,2, 6, 2, 0, 5,45.00,60.00,Thursday
24,4678620.056598779
36,427500.0
72,337500.0
1207,589606.758008379
1270,3661513.2985904007
2,2, 6, 2, 0, 6, 0.00,15.00,Thursday
24,4677997.428855245
36,427500.0
72,337500.0
1207,589606.758008379
1270,3660890.670846866
2,2, 6, 2, 0, 6,15.00,30.00,Thursday
24,4677384.640974593
36,427500.0
72,337500.0
1207,589606.758008379
1270,3660277.8829662143
2,2, 6, 2, 0, 6,30.00,45.00,Thursday
24,4676781.447992838
36,427500.0
72,337500.0
1207,589606.758008379
1270,3659674.689984459
2,2, 6, 2, 0, 6,45.00,60.00,Thursday
24,4676187.691219791
36,427500.0
72,337500.0
1207,589606.758008379
1270,3659080.9332114127
2,2, 6, 2, 0, 7, 0.00,15.00,Thursday
24,4676586.586204288
36,427500.0
72,337500.0
1207,589606.758008379
1270,3659479.8281959086
2,2, 6, 2, 0, 7,15.00,30.00,Thursday
24,4676986.568488358
36,427500.0
72,337500.0
1207,589606.758008379
1270,3659879.8104799795
2,2, 6, 2, 0, 7,30.00,45.00,Thursday
24,4677387.675040367
36,427500.0
72,337500.0
1207,589606.758008379
1270,3660280.917031989
2,2, 6, 2, 0, 7,45.00,60.00,Thursday
24,4677789.8535913015
36,427500.0
72,337500.0
1207,589606.758008379
1270,3660683.0955829234
2,2, 6, 2, 0, 8, 0.00,15.00,Thursday
24,4679444.37693698
36,427500.0
72,337500.0
1207,589606.758008379
1270,3662337.6189286015
2,2, 6, 2, 0, 8,15.00,30.00,Thursday
24,4681163.21998192
36,427500.0
72,337500.0
1207,589606.758008379
1270,3664056.461973541
2,2, 6, 2, 0, 8,30.00,45.00,Thursday
24,4682949.973929452
36,427500.0
72,337500.0
1207,589606.758008379
1270,3665843.2159210728
2,2, 6, 2, 0, 8,45.00,60.00,Thursday
24,4684808.439502941
36,427500.0
72,337500.0
1207,589606.758008379
1270,3667701.6814945624
2,2, 6, 2, 0, 9, 0.00,15.00,Thursday
24,12134145.017787723
36,7875000.0
72,6075000.0
1207,589606.758008379
1270,3669538.2597793406
2,2, 6, 2, 0, 9,15.00,30.00,Thursday
24,13729900.929181004
36,7875000.0
72,6075000.0
1207,603354.6411773217
1270,5251546.288003682
2,2, 6, 2, 0, 9,30.00,45.00,Thursday
24,12137994.746368073
36,7875000.0
72,6075000.0
1207,589606.758008379
1270,3673387.988359693
2,2, 6, 2, 0, 9,45.00,60.00,Thursday
24,12140007.294541761
36,7875000.0
72,6075000.0
1207,589606.758008379
1270,3675400.53653338
2,2, 6, 2, 0,10, 0.00,15.00,Thursday
24,14728849.789080312
36,10462500.0
72,6412500.0
1207,589606.758008379
1270,3676743.0310719316
2,2, 6, 2, 0,10,15.00,30.00,Thursday
24,14730197.17583097
36,10462500.0
72,6412500.0
1207,589606.758008379
1270,3678090.417822588
2,2, 6, 2, 0,10,30.00,45.00,Thursday
24,14731547.688006997
36,10462500.0
72,6412500.0
1207,589606.758008379
1270,3679440.9299986158
2,2, 6, 2, 0,10,45.00,60.00,Thursday
24,14732899.256500328
36,10462500.0
72,6412500.0
1207,589606.758008379
1270,3680792.498491948
2,2, 6, 2, 0,11, 0.00,15.00,Thursday
24,15073158.139715912
36,10800000.0
72,6750000.0
1207,591722.4821745442
1270,3681435.6575413696
2,2, 6, 2, 0,11,15.00,30.00,Thursday
24,15074709.8695661
36,10800000.0
72,6750000.0
1207,592655.5097047971
1270,3682054.3598613036
2,2, 6, 2, 0,11,30.00,45.00,Thursday
24,15527966.094056686
36,10800000.0
72,6750000.0
1207,616476.125089762
1270,4111489.9689669246
2,2, 6, 2, 0,11,45.00,60.00,Thursday
24,15078552.747642448
36,10800000.0
72,6750000.0
1207,595340.8332708449
1270,3683211.9143716036
2,2, 6, 2, 0,12, 0.00,15.00,Thursday
24,14740998.378560716
36,10462500.0
72,6412500.0
1207,594991.0721026739
1270,3683507.30645804
2,2, 6, 2, 0,12,15.00,30.00,Thursday
24,15418107.300449435
36,10462500.0
72,6412500.0
1207,629774.1176494118
1270,4325833.182800023
2,2, 6, 2, 0,12,30.00,45.00,Thursday
24,14769819.977636311
36,10462500.0
72,6412500.0
1207,601071.1875229818
1270,3706248.79011333
2,2, 6, 2, 0,12,45.00,60.00,Thursday
24,14927942.037606964
36,10462500.0
72,6412500.0
1207,607160.282692421
1270,3858281.7549145417
2,2, 6, 2, 0,13, 0.00,15.00,Thursday
24,13730505.38603045
36,9450000.0
72,5400000.0
1207,596297.2484489502
1270,3684208.1375814998
2,2, 6, 2, 0,13,15.00,30.00,Thursday
24,14059839.76732642
36,9450000.0
72,5400000.0
1207,613039.9791297977
1270,3996799.788196623
2,2, 6, 2, 0,13,30.00,45.00,Thursday
24,13899170.32424295
36,9450000.0
72,5400000.0
1207,603507.1025334102
1270,3845663.221709537
2,2, 6, 2, 0,13,45.00,60.00,Thursday
24,14111758.045501728
36,9450000.0
72,5400000.0
1207,615135.9638272958
1270,4046622.08167443
2,2, 6, 2, 0,14, 0.00,15.00,Thursday
24,14791356.120969435
36,10125000.0
72,6075000.0
1207,611437.264631001
1270,4054918.856338433
2,2, 6, 2, 0,14,15.00,30.00,Thursday
24,15068644.048396252
36,10125000.0
72,6075000.0
1207,620713.7703521239
1270,4322930.278044126
2,2, 6, 2, 0,14,30.00,45.00,Thursday
24,14964070.999321036
36,10125000.0
72,6075000.0
1207,614097.4759099889
1270,4224973.523411047
2,2, 6, 2, 0,14,45.00,60.00,Thursday
24,15519926.759518385
36,10125000.0
72,6075000.0
1207,637903.4227675293
1270,4757023.336750855
2,2, 6, 2, 0,15, 0.00,15.00,Thursday
24,15674382.475014368
36,10350000.0
72,6750000.0
1207,627236.6922447766
1270,4697145.782769592
2,2, 6, 2, 0,15,15.00,30.00,Thursday
24,16333752.277785162
36,10350000.0
72,6750000.0
1207,658982.2379300683
1270,5324770.039855093
2,2, 6, 2, 0,15,30.00,45.00,Thursday
24,16686330.554608133
36,10350000.0
72,6750000.0
1207,661265.364313921
1270,5675065.19029421
2,2, 6, 2, 0,15,45.00,60.00,Thursday
24,16177022.149722202
36,10350000.0
72,6750000.0
1207,635242.0329961437
1270,5191780.116726056
2,2, 6, 2, 0,16, 0.00,15.00,Thursday
24,16003355.771444857
36,9900000.0
72,6750000.0
1207,645328.1222274038
1270,5458027.649217452
2,2, 6, 2, 0,16,15.00,30.00,Thursday
24,15754725.56899887
36,9900000.0
72,6750000.0
1207,635279.1032708292
1270,5219446.465728041
2,2, 6, 2, 0,16,30.00,45.00,Thursday
24,15964610.497566057
36,9900000.0
72,6750000.0
1207,639398.4271308305
1270,5425212.070435227
2,2, 6, 2, 0,16,45.00,60.00,Thursday
24,15682697.491125291
36,9900000.0
72,6750000.0
1207,626551.3871734827
1270,5156146.103951806
2,2, 6, 2, 0,17, 0.00,15.00,Thursday
24,14427274.20669045
36,9000000.0
72,6750000.0
1207,615416.423500625
1270,4811857.783189824
2,2, 6, 2, 0,17,15.00,30.00,Thursday
24,14206187.920441087
36,9000000.0
72,6750000.0
1207,612555.0597820777
1270,4593632.860659009
2,2, 6, 2, 0,17,30.00,45.00,Thursday
24,14360637.391571883
36,9000000.0
72,6750000.0
1207,609526.8891154204
1270,4751110.502456462
2,2, 6, 2, 0,17,45.00,60.00,Thursday
24,14956411.450212788
36,9000000.0
72,6750000.0
1207,623985.6995135074
1270,5332425.750699282
2,2, 6, 2, 0,18, 0.00,15.00,Thursday
24,14768183.546540495
36,9000000.0
72,6750000.0
1207,619919.9108429202
1270,5148263.635697572
2,2, 6, 2, 0,18,15.00,30.00,Thursday
24,14915759.870954132
36,9000000.0
72,6750000.0
1207,625433.065240413
1270,5290326.805713718
2,2, 6, 2, 0,18,30.00,45.00,Thursday
24,14706083.604031678
36,9000000.0
72,6750000.0
1207,620757.6076466441
1270,5085325.996385032
2,2, 6, 2, 0,18,45.00,60.00,Thursday
24,14486017.234304747
36,9000000.0
72,6750000.0
1207,616057.4666195132
1270,4869959.767685231
2,2, 6, 2, 0,19, 0.00,15.00,Thursday
24,9691241.6261926
36,5400000.0
72,4050000.0
1207,597045.8064154498
1270,3694195.8197771492
2,2, 6, 2, 0,19,15.00,30.00,Thursday
24,9680569.811954804
36,5400000.0
72,4050000.0
1207,591413.7754211496
1270,3689156.0365336523
2,2, 6, 2, 0,19,30.00,45.00,Thursday
24,9678786.852866525
36,5400000.0
72,4050000.0
1207,591183.3176342594
1270,3687603.535232265
2,2, 6, 2, 0,19,45.00,60.00,Thursday
24,9676817.329804476
36,5400000.0
72,4050000.0
1207,590749.3200168735
1270,3686068.009787602
2,2, 6, 2, 0,20, 0.00,15.00,Thursday
24,8323924.972604295
36,4050000.0
72,2700000.0
1207,589606.758008379
1270,3684318.214595916
2,2, 6, 2, 0,20,15.00,30.00,Thursday
24,8322206.465363088
36,4050000.0
72,2700000.0
1207,589606.758008379
1270,3682599.707354709
2,2, 6, 2, 0,20,30.00,45.00,Thursday
24,8320519.3970257575
36,4050000.0
72,2700000.0
1207,589606.758008379
1270,3680912.6390173784
2,2, 6, 2, 0,20,45.00,60.00,Thursday
24,8318863.835651448
36,4050000.0
72,2700000.0
1207,589606.758008379
1270,3679257.077643069
2,2, 6, 2, 0,21, 0.00,15.00,Thursday
24,8318218.743387107
36,4050000.0
72,2700000.0
1207,589606.758008379
1270,3678611.985378728
2,2, 6, 2, 0,21,15.00,30.00,Thursday
24,8317555.4666432645
36,4050000.0
72,2700000.0
1207,589606.758008379
1270,3677948.7086348855
2,2, 6, 2, 0,21,30.00,45.00,Thursday
24,8316875.307324994
36,4050000.0
72,2700000.0
1207,589606.758008379
1270,3677268.5493166153
2,2, 6, 2, 0,21,45.00,60.00,Thursday
24,8316179.608768912
36,4050000.0
72,2700000.0
1207,589606.758008379
1270,3676572.850760534
2,2, 6, 2, 0,22, 0.00,15.00,Thursday
24,4693249.537737823
36,427500.0
72,337500.0
1207,589606.758008379
1270,3676142.7797294445
2,2, 6, 2, 0,22,15.00,30.00,Thursday
24,4692810.426655971
36,427500.0
72,337500.0
1207,589606.758008379
1270,3675703.668647592
2,2, 6, 2, 0,22,30.00,45.00,Thursday
24,4692362.809086477
36,427500.0
72,337500.0
1207,589606.758008379
1270,3675256.051078098
2,2, 6, 2, 0,22,45.00,60.00,Thursday
24,4691907.087910338
36,427500.0
72,337500.0
1207,589606.758008379
1270,3674800.3299019593
2,2, 6, 2, 0,23, 0.00,15.00,Thursday
24,4692239.222432032
36,427500.0
72,337500.0
1207,589606.758008379
1270,3675132.464423654
2,2, 6, 2, 0,23,15.00,30.00,Thursday
24,4692566.425907863
36,427500.0
72,337500.0
1207,589606.758008379
1270,3675459.667899485
2,2, 6, 2, 0,23,30.00,45.00,Thursday
24,4692888.672169635
36,427500.0
72,337500.0
1207,589606.758008379
1270,3675781.914161257
2,2, 6, 2, 0,23,45.00,60.00,Thursday
24,4693205.89339186
36,427500.0
72,337500.0
1207,589606.758008379
1270,3676099.1353834816
2,2, 6, 2, 0,24, 0.00,15.00,Thursday
24,4693414.651711298
36,427500.0
72,337500.0
1207,589606.758008379
1270,3676307.893702919
2,2, 6, 2, 0,24,15.00,30.00,Thursday
24,4693621.082161947
36,427500.0
72,337500.0
1207,589606.758008379
1270,3676514.324153569
2,2, 6, 2, 0,24,30.00,45.00,Thursday
24,4693825.213051618
36,427500.0
72,337500.0
1207,589606.758008379
1270,3676718.45504324
2,2, 6, 2, 0,24,45.00,60.00,Thursday
24,4694027.10916002
36,427500.0
72,337500.0
1207,589606.758008379
1270,3676920.351151642
2,3, 6, 3, 0, 1, 0.00,15.00,Friday
24,4694009.988473694
36,427500.0
72,337500.0
1207,589606.758008379
1270,3676903.230465315
2,3, 6, 3, 0, 1,15.00,30.00,Friday
24,4693988.966313649
36,427500.0
72,337500.0
1207,589606.758008379
1270,3676882.20830527
2,3, 6, 3, 0, 1,30.00,45.00,Friday
24,4693964.075050726
36,427500.0
72,337500.0
1207,589606.758008379
1270,3676857.3170423475
2,3, 6, 3, 0, 1,45.00,60.00,Friday
24,4693935.299851709
36,427500.0
72,337500.0
1207,589606.758008379
1270,3676828.54184333
2,3, 6, 3, 0, 2, 0.00,15.00,Friday
24,4693906.594460404
36,427500.0
72,337500.0
1207,589606.758008379
1270,3676799.8364520245
2,3, 6, 3, 0, 2,15.00,30.00,Friday
24,4693874.058514685
36,427500.0
72,337500.0
1207,589606.758008379
1270,3676767.3005063073
2,3, 6, 3, 0, 2,30.00,45.00,Friday
24,4693837.735239843
36,427500.0
72,337500.0
1207,589606.758008379
1270,3676730.977231464
2,3, 6, 3, 0, 2,45.00,60.00,Friday
24,4693797.672715069
36,427500.0
72,337500.0
1207,589606.758008379
1270,3676690.9147066907
2,3, 6, 3, 0, 3, 0.00,15.00,Friday
24,4692322.01840045
36,427500.0
72,337500.0
1207,589606.758008379
1270,3675215.260392071
2,3, 6, 3, 0, 3,15.00,30.00,Friday
24,4690891.753875809
36,427500.0
72,337500.0
1207,589606.758008379
1270,3673784.9958674307
2,3, 6, 3, 0, 3,30.00,45.00,Friday
24,4689504.8278200915
36,427500.0
72,337500.0
1207,589606.758008379
1270,3672398.0698117125
2,3, 6, 3, 0, 3,45.00,60.00,Friday
24,4688155.278476575
36,427500.0
72,337500.0
1207,589606.758008379
1270,3671048.5204681964
2,3, 6, 3, 0, 4, 0.00,15.00,Friday
24,4686053.696109053
36,427500.0
72,337500.0
1207,589606.758008379
1270,3668946.9381006737
2,3, 6, 3, 0, 4,15.00,30.00,Friday
24,4684052.645884854
36,427500.0
72,337500.0
1207,589606.758008379
1270,3666945.8878764757
2,3, 6, 3, 0, 4,30.00,45.00,Friday
24,4682145.259095486
36,427500.0
72,337500.0
1207,589606.758008379
1270,3665038.501087108
2,3, 6, 3, 0, 4,45.00,60.00,Friday
24,4680325.320539038
36,427500.0
72,337500.0
1207,589606.758008379
1270,3663218.5625306596
2,3, 6, 3, 0, 5, 0.00,15.00,Friday
24,4678587.13491364
36,427500.0
72,337500.0
1207,589606.758008379
1270,3661480.376905262
2,3, 6, 3, 0, 5,15.00,30.00,Friday
24,4676925.46206654
36,427500.0
72,337500.0
1207,589606.758008379
1270,3659818.7040581605
2,3, 6, 3, 0, 5,30.00,45.00,Friday
24,4675335.504023403
36,427500.0
72,337500.0
1207,589606.758008379
1270,3658228.746015024
2,3, 6, 3, 0, 5,45.00,60.00,Friday
24,4673812.907148104
36,427500.0
72,337500.0
1207,589606.758008379
1270,3656706.149139726
2,3, 6, 3, 0, 6, 0.00,15.00,Friday
24,4672949.098397853
36,427500.0
72,337500.0
1207,589606.758008379
1270,3655842.3403894748
2,3, 6, 3, 0, 6,15.00,30.00,Friday
24,4672106.7092999825
36,427500.0
72,337500.0
1207,589606.758008379
1270,3654999.9512916044
2,3, 6, 3, 0, 6,30.00,45.00,Friday
24,4671285.096193862
36,427500.0
72,337500.0
1207,589606.758008379
1270,3654178.338185483
2,3, 6, 3, 0, 6,45.00,60.00,Friday
24,4670483.469105109
36,427500.0
72,337500.0
1207,589606.758008379
1270,3653376.7110967296
2,3, 6, 3, 0, 7, 0.00,15.00,Friday
24,4670761.429626708
36,427500.0
72,337500.0
1207,589606.758008379
1270,3653654.67161833
2,3, 6, 3, 0, 7,15.00,30.00,Friday
24,4671038.581353885
36,427500.0
72,337500.0
1207,589606.758008379
1270,3653931.823345506
2,3, 6, 3, 0, 7,30.00,45.00,Friday
24,4671314.838841894
36,427500.0
72,337500.0
1207,589606.758008379
1270,3654208.0808335147
2,3, 6, 3, 0, 7,45.00,60.00,Friday
24,4671590.1689399425
36,427500.0
72,337500.0
1207,589606.758008379
1270,3654483.4109315644
2,3, 6, 3, 0, 8, 0.00,15.00,Friday
24,4672482.170874823
36,427500.0
72,337500.0
1207,589606.758008379
1270,3655375.412866444
2,3, 6, 3, 0, 8,15.00,30.00,Friday