Program Version,EnergyPlus, Version 23.2.0-7636e6b3e9, YMD=2025.07.31 07:32
1,5,Environment Title[],Latitude[deg],Longitude[deg],Time Zone[],Elevation[m]
2,8,Day of Simulation[],Month[],Day of Month[],DST Indicator[1=yes 0=no],Hour[],StartMinute[],EndMinute[],DayType
3,5,Cumulative Day of Simulation[],Month[],Day of Month[],DST Indicator[1=yes 0=no],DayType  ! When Daily Meters Requested
4,2,Cumulative Days of Simulation[],Month[]  ! When Monthly Meters Requested
5,1,Cumulative Days of Simulation[] ! When Run Period Meters Requested
6,1,Calendar Year of Simulation[] ! When Annual Meters Requested
24,1,Electricity:Facility [J] !TimeStep
36,1,Electricity:Building [J] !TimeStep
72,1,InteriorLights:Electricity [J] !TimeStep
1207,1,Electricity:HVAC [J] !TimeStep
1270,1,Electricity:Plant [J] !TimeStep
29,11,Electricity:Facility [J] !RunPeriod [Value,Min,Month,Day,Hour,Minute,Max,Month,Day,Hour,Minute]
41,11,Electricity:Building [J] !RunPeriod [Value,Min,Month,Day,Hour,Minute,Max,Month,Day,Hour,Minute]
77,11,InteriorLights:Electricity [J] !RunPeriod [Value,Min,Month,Day,Hour,Minute,Max,Month,Day,Hour,Minute]
1212,11,Electricity:HVAC [J] !RunPeriod [Value,Min,Month,Day,Hour,Minute,Max,Month,Day,Hour,Minute]
1275,11,Electricity:Plant [J] !RunPeriod [Value,Min,Month,Day,Hour,Minute,Max,Month,Day,Hour,Minute]
End of Data Dictionary
1,RUN PERIOD 2,  36.60, 117.05,   8.00, 170.30
2,1, 6, 1, 0, 1, 0.00,15.00,Wednesday
24,4708473.766012155
36,427500.0
72,337500.0
1207,589606.758008379
1270,3691367.0080037764
2,1, 6, 1, 0, 1,15.00,30.00,Wednesday
24,4702707.17763121
36,427500.0
72,337500.0
1207,589606.758008379
1270,3685600.4196228306
2,1, 6, 1, 0, 1,30.00,45.00,Wednesday
24,4704619.585014811
36,427500.0
72,337500.0
1207,596786.8389116537
1270,3680332.7461031578
2,1, 6, 1, 0, 1,45.00,60.00,Wednesday
24,4707325.2353641465
36,427500.0
72,337500.0
1207,604321.7552814904
1270,3675503.4800826567
2,1, 6, 1, 0, 2, 0.00,15.00,Wednesday
24,4707031.900882896
36,427500.0
72,337500.0
1207,603485.0210127879
1270,3676046.879870109
2,1, 6, 1, 0, 2,15.00,30.00,Wednesday
24,4708396.114383896
36,427500.0
72,337500.0
1207,604321.7552814903
1270,3676574.359102406
2,1, 6, 1, 0, 2,30.00,45.00,Wednesday
24,4708906.581792854
36,427500.0
72,337500.0
1207,604321.7552814903
1270,3677084.826511364
2,1, 6, 1, 0, 2,45.00,60.00,Wednesday
24,4709399.004169051
36,427500.0
72,337500.0
1207,604321.7552814903
1270,3677577.248887561
2,1, 6, 1, 0, 3, 0.00,15.00,Wednesday
24,4709664.5014638845
36,427500.0
72,337500.0
1207,604321.7552814903
1270,3677842.7461823947
2,1, 6, 1, 0, 3,15.00,30.00,Wednesday
24,4709908.932057867
36,427500.0
72,337500.0
1207,604321.7552814903
1270,3678087.176776377
2,1, 6, 1, 0, 3,30.00,45.00,Wednesday
24,4710131.455347488
36,427500.0
72,337500.0
1207,604321.7552814903
1270,3678309.700065998
2,1, 6, 1, 0, 3,45.00,60.00,Wednesday
24,4710331.483618442
36,427500.0
72,337500.0
1207,604321.7552814903
1270,3678509.728336952
2,1, 6, 1, 0, 4, 0.00,15.00,Wednesday
24,4709848.373571865
36,427500.0
72,337500.0
1207,604321.7552814903
1270,3678026.6182903755
2,1, 6, 1, 0, 4,15.00,30.00,Wednesday
24,4703414.334112334
36,427500.0
72,337500.0
1207,598374.8874008297
1270,3677539.4467115053
2,1, 6, 1, 0, 4,30.00,45.00,Wednesday
24,4695095.02251315
36,427500.0
72,337500.0
1207,590546.7892726642
1270,3677048.233240486
2,1, 6, 1, 0, 4,45.00,60.00,Wednesday
24,4708374.803777229
36,427500.0
72,337500.0
1207,604321.7552814903
1270,3676553.0484957388
2,1, 6, 1, 0, 5, 0.00,15.00,Wednesday
24,4707655.420984423
36,427500.0
72,337500.0
1207,604321.7552814903
1270,3675833.6657029325
2,1, 6, 1, 0, 5,15.00,30.00,Wednesday
24,4706944.938745199
36,427500.0
72,337500.0
1207,604321.7552814903
1270,3675123.183463709
2,1, 6, 1, 0, 5,30.00,45.00,Wednesday
24,4691528.173137314
36,427500.0
72,337500.0
1207,589606.758008379
1270,3674421.415128934
2,1, 6, 1, 0, 5,45.00,60.00,Wednesday
24,4690834.956489093
36,427500.0
72,337500.0
1207,589606.758008379
1270,3673728.198480713
2,1, 6, 1, 0, 6, 0.00,15.00,Wednesday
24,4698068.074212814
36,427500.0
72,337500.0
1207,597703.9386726824
1270,3672864.1355401315
2,1, 6, 1, 0, 6,15.00,30.00,Wednesday
24,4693243.699264099
36,427500.0
72,337500.0
1207,593732.5200136921
1270,3672011.1792504075
2,1, 6, 1, 0, 6,30.00,45.00,Wednesday
24,4690931.582377656
36,427500.0
72,337500.0
1207,592254.4902364286
1270,3671177.092141228
2,1, 6, 1, 0, 6,45.00,60.00,Wednesday
24,4687464.126085793
36,427500.0
72,337500.0
1207,589606.758008379
1270,3670357.3680774136
2,1, 6, 1, 0, 7, 0.00,15.00,Wednesday
24,4687632.232722467
36,427500.0
72,337500.0
1207,589606.758008379
1270,3670525.4747140887
2,1, 6, 1, 0, 7,15.00,30.00,Wednesday
24,4687800.984636138
36,427500.0
72,337500.0
1207,589606.758008379
1270,3670694.22662776
2,1, 6, 1, 0, 7,30.00,45.00,Wednesday
24,4687970.374514963
36,427500.0
72,337500.0
1207,589606.758008379
1270,3670863.6165065845
2,1, 6, 1, 0, 7,45.00,60.00,Wednesday
24,4688140.429642734
36,427500.0
72,337500.0
1207,589606.758008379
1270,3671033.671634355
2,1, 6, 1, 0, 8, 0.00,15.00,Wednesday
24,4694313.926339534
36,427500.0
72,337500.0
1207,594932.3304160809
1270,3671881.5959234536
2,1, 6, 1, 0, 8,15.00,30.00,Wednesday
24,4689857.639542158
36,427500.0
72,337500.0
1207,589606.758008379
1270,3672750.8815337797
2,1, 6, 1, 0, 8,30.00,45.00,Wednesday
24,4690740.601015273
36,427500.0
72,337500.0
1207,589606.758008379
1270,3673633.843006894
2,1, 6, 1, 0, 8,45.00,60.00,Wednesday
24,4691641.977912662
36,427500.0
72,337500.0
1207,589606.758008379
1270,3674535.2199042826
2,1, 6, 1, 0, 9, 0.00,15.00,Wednesday
24,12141210.3010596
36,7875000.0
72,6075000.0
1207,589606.758008379
1270,3676603.5430512195
2,1, 6, 1, 0, 9,15.00,30.00,Wednesday
24,12143377.763426896
36,7875000.0
72,6075000.0
1207,589606.758008379
1270,3678771.0054185153
2,1, 6, 1, 0, 9,30.00,45.00,Wednesday
24,12150037.182319745
36,7875000.0
72,6075000.0
1207,593992.6779890775
1270,3681044.504330668
2,1, 6, 1, 0, 9,45.00,60.00,Wednesday
24,12148038.790120333
36,7875000.0
72,6075000.0
1207,589606.758008379
1270,3683432.032111952
2,1, 6, 1, 0,10, 0.00,15.00,Wednesday
24,14831849.010721214
36,10462500.0
72,6412500.0
1207,601773.0710346638
1270,3767575.93968655
2,1, 6, 1, 0,10,15.00,30.00,Wednesday
24,15250228.870878996
36,10462500.0
72,6412500.0
1207,611449.836882079
1270,4176279.0339969164
2,1, 6, 1, 0,10,30.00,45.00,Wednesday
24,15952714.647877505
36,10462500.0
72,6412500.0
1207,628566.3800711678
1270,4861648.267806338
2,1, 6, 1, 0,10,45.00,60.00,Wednesday
24,15759387.698971182
36,10462500.0
72,6412500.0
1207,623466.703806406
1270,4673420.995164775
2,1, 6, 1, 0,11, 0.00,15.00,Wednesday
24,17726762.06359539
36,10800000.0
72,6750000.0
1207,690524.471178093
1270,6236237.592417299
2,1, 6, 1, 0,11,15.00,30.00,Wednesday
24,17995943.068401653
36,10800000.0
72,6750000.0
1207,670625.1295497066
1270,6525317.938851941
2,1, 6, 1, 0,11,30.00,45.00,Wednesday
24,18601598.452850558
36,10800000.0
72,6750000.0
1207,701268.9435795934
1270,7100329.5092709595
2,1, 6, 1, 0,11,45.00,60.00,Wednesday
24,15905956.486546481
36,10800000.0
72,6750000.0
1207,601038.1275350151
1270,4504918.359011464
2,1, 6, 1, 0,12, 0.00,15.00,Wednesday
24,16742925.611201584
36,10462500.0
72,6412500.0
1207,626063.3987184042
1270,5654362.212483181
2,1, 6, 1, 0,12,15.00,30.00,Wednesday
24,19872177.098892204
36,10462500.0
72,6412500.0
1207,773436.2318597508
1270,8636240.86703245
2,1, 6, 1, 0,12,30.00,45.00,Wednesday
24,17494779.48521535
36,10462500.0
72,6412500.0
1207,632442.9380564602
1270,6399836.547158889
2,1, 6, 1, 0,12,45.00,60.00,Wednesday
24,20078525.07186853
36,10462500.0
72,6412500.0
1207,777668.4386091561
1270,8838356.633259377
2,1, 6, 1, 0,13, 0.00,15.00,Wednesday
24,16878624.038044263
36,9450000.0
72,5400000.0
1207,634601.8485470489
1270,6794022.189497216
2,1, 6, 1, 0,13,15.00,30.00,Wednesday
24,17111786.45063684
36,9450000.0
72,5400000.0
1207,649118.156808934
1270,7012668.293827908
2,1, 6, 1, 0,13,30.00,45.00,Wednesday
24,16320996.69867577
36,9450000.0
72,5400000.0
1207,641327.6952548267
1270,6229669.003420945
2,1, 6, 1, 0,13,45.00,60.00,Wednesday
24,14946680.85509336
36,9450000.0
72,5400000.0
1207,605412.9564939559
1270,4891267.898599401
2,1, 6, 1, 0,14, 0.00,15.00,Wednesday
24,16432101.546903731
36,10125000.0
72,6075000.0
1207,629860.841094225
1270,5677240.705809504
2,1, 6, 1, 0,14,15.00,30.00,Wednesday
24,15381908.725539666
36,10125000.0
72,6075000.0
1207,604047.0010133225
1270,4652861.724526342
2,1, 6, 1, 0,14,30.00,45.00,Wednesday
24,18305230.296883695
36,10125000.0
72,6075000.0
1207,732704.9636129723
1270,7447525.333270719
2,1, 6, 1, 0,14,45.00,60.00,Wednesday
24,16693789.297700087
36,10125000.0
72,6075000.0
1207,635018.039849553
1270,5933771.257850534
2,1, 6, 1, 0,15, 0.00,15.00,Wednesday
24,19015534.463505164
36,10350000.0
72,6750000.0
1207,805359.6594839017
1270,7860174.804021255
2,1, 6, 1, 0,15,15.00,30.00,Wednesday
24,16544282.196356572
36,10350000.0
72,6750000.0
1207,634435.8991528216
1270,5559846.297203748
2,1, 6, 1, 0,15,30.00,45.00,Wednesday
24,17683256.53417015
36,10350000.0
72,6750000.0
1207,696823.2531806718
1270,6636433.280989476
2,1, 6, 1, 0,15,45.00,60.00,Wednesday
24,17575806.82464745
36,10350000.0
72,6750000.0
1207,716168.7106162066
1270,6509638.114031239
2,1, 6, 1, 0,16, 0.00,15.00,Wednesday
24,14422197.62316611
36,9900000.0
72,6750000.0
1207,602047.2879774314
1270,3920150.3351886785
2,1, 6, 1, 0,16,15.00,30.00,Wednesday
24,16660195.804260911
36,9900000.0
72,6750000.0
1207,707152.1113099917
1270,6053043.692950919
2,1, 6, 1, 0,16,30.00,45.00,Wednesday
24,15519607.66865988
36,9900000.0
72,6750000.0
1207,642530.8045174772
1270,4977076.864142402
2,1, 6, 1, 0,16,45.00,60.00,Wednesday
24,16055946.377921343
36,9900000.0
72,6750000.0
1207,679856.7982672997
1270,5476089.579654043
2,1, 6, 1, 0,17, 0.00,15.00,Wednesday
24,13977230.898890281
36,9000000.0
72,6750000.0
1207,626650.1407535721
1270,4350580.758136707
2,1, 6, 1, 0,17,15.00,30.00,Wednesday
24,13271203.528924674
36,9000000.0
72,6750000.0
1207,589606.758008379
1270,3681596.7709162915
2,1, 6, 1, 0,17,30.00,45.00,Wednesday
24,13920693.102933241
36,9000000.0
72,6750000.0
1207,629617.7115252914
1270,4291075.391407948
2,1, 6, 1, 0,17,45.00,60.00,Wednesday
24,13519760.391080434
36,9000000.0
72,6750000.0
1207,605170.6804783418
1270,3914589.7106020907
2,1, 6, 1, 0,18, 0.00,15.00,Wednesday
24,13440550.335545557
36,9000000.0
72,6750000.0
1207,607025.7519274163
1270,3833524.58361814
2,1, 6, 1, 0,18,15.00,30.00,Wednesday
24,13277846.146153212
36,9000000.0
72,6750000.0
1207,598653.1125097165
1270,3679193.0336434944
2,1, 6, 1, 0,18,30.00,45.00,Wednesday
24,13540277.167741269
36,9000000.0
72,6750000.0
1207,607254.0851967612
1270,3933023.082544509
2,1, 6, 1, 0,18,45.00,60.00,Wednesday
24,13562321.301731857
36,9000000.0
72,6750000.0
1207,611809.546361886
1270,3950511.75536997
2,1, 6, 1, 0,19, 0.00,15.00,Wednesday
24,9674770.94393304
36,5400000.0
72,4050000.0
1207,594555.8173433766
1270,3680215.1265896615
2,1, 6, 1, 0,19,15.00,30.00,Wednesday
24,9670623.190962564
36,5400000.0
72,4050000.0
1207,589606.758008379
1270,3681016.4329541842
2,1, 6, 1, 0,19,30.00,45.00,Wednesday
24,9671438.27486668
36,5400000.0
72,4050000.0
1207,589606.758008379
1270,3681831.516858298
2,1, 6, 1, 0,19,45.00,60.00,Wednesday
24,9672267.339813087
36,5400000.0
72,4050000.0
1207,589606.758008379
1270,3682660.581804707
2,1, 6, 1, 0,20, 0.00,15.00,Wednesday
24,8323596.602861433
36,4050000.0
72,2700000.0
1207,589606.758008379
1270,3683989.8448530543
2,1, 6, 1, 0,20,15.00,30.00,Wednesday
24,8324962.875535234
36,4050000.0
72,2700000.0
1207,589606.758008379
1270,3685356.117526856
2,1, 6, 1, 0,20,30.00,45.00,Wednesday
24,8326367.550633351
36,4050000.0
72,2700000.0
1207,589606.758008379
1270,3686760.7926249723
2,1, 6, 1, 0,20,45.00,60.00,Wednesday
24,8327812.161469946
36,4050000.0
72,2700000.0
1207,589606.758008379
1270,3688205.4034615667
2,1, 6, 1, 0,21, 0.00,15.00,Wednesday
24,8329167.229185125
36,4050000.0
72,2700000.0
1207,589606.758008379
1270,3689560.471176746
2,1, 6, 1, 0,21,15.00,30.00,Wednesday
24,8330557.042900566
36,4050000.0
72,2700000.0
1207,589606.758008379
1270,3690950.284892187
2,1, 6, 1, 0,21,30.00,45.00,Wednesday
24,8331982.931858071
36,4050000.0
72,2700000.0
1207,589606.758008379
1270,3692376.173849692
2,1, 6, 1, 0,21,45.00,60.00,Wednesday
24,8333446.194139929
36,4050000.0
72,2700000.0
1207,589606.758008379
1270,3693839.4361315495
2,1, 6, 1, 0,22, 0.00,15.00,Wednesday
24,4711842.023388513
36,427500.0
72,337500.0
1207,589606.758008379
1270,3694735.265380134
2,1, 6, 1, 0,22,15.00,30.00,Wednesday
24,4712749.820174226
36,427500.0
72,337500.0
1207,589606.758008379
1270,3695643.062165847
2,1, 6, 1, 0,22,30.00,45.00,Wednesday
24,4713669.92665066
36,427500.0
72,337500.0
1207,589606.758008379
1270,3696563.1686422816
2,1, 6, 1, 0,22,45.00,60.00,Wednesday
24,4714602.506937654
36,427500.0
72,337500.0
1207,589606.758008379
1270,3697495.7489292757
2,1, 6, 1, 0,23, 0.00,15.00,Wednesday
24,4714903.707399464
36,427500.0
72,337500.0
1207,589606.758008379
1270,3697796.949391086
2,1, 6, 1, 0,23,15.00,30.00,Wednesday
24,4715201.601920523
36,427500.0
72,337500.0
1207,589606.758008379
1270,3698094.8439121437
2,1, 6, 1, 0,23,30.00,45.00,Wednesday
24,4715490.994442209
36,427500.0
72,337500.0
1207,589606.758008379
1270,3698384.2364338296
2,1, 6, 1, 0,23,45.00,60.00,Wednesday
24,4715783.701973495
36,427500.0
72,337500.0
1207,589606.758008379
1270,3698676.943965116
2,1, 6, 1, 0,24, 0.00,15.00,Wednesday
24,4715557.880283381
36,427500.0
72,337500.0
1207,589606.758008379
1270,3698451.122275002
2,1, 6, 1, 0,24,15.00,30.00,Wednesday
24,4715324.958344448
36,427500.0
72,337500.0
1207,589606.758008379
1270,3698218.2003360693
2,1, 6, 1, 0,24,30.00,45.00,Wednesday
24,4715074.5096024005
36,427500.0
72,337500.0
1207,589606.758008379
1270,3697967.7515940224
2,1, 6, 1, 0,24,45.00,60.00,Wednesday
24,4714811.783402315
36,427500.0
72,337500.0
1207,589606.758008379
1270,3697705.0253939372
2,2, 6, 2, 0, 1, 0.00,15.00,Thursday
24,4713478.290793729
36,427500.0
72,337500.0
1207,589606.758008379
1270,3696371.53278535
2,2, 6, 2, 0, 1,15.00,30.00,Thursday
24,4712165.668139788
36,427500.0
72,337500.0
1207,589606.758008379
1270,3695058.9101314093
2,2, 6, 2, 0, 1,30.00,45.00,Thursday
24,4783860.299929429
36,427500.0
72,337500.0
1207,598415.3444586212
1270,3757944.955470808
2,2, 6, 2, 0, 1,45.00,60.00,Thursday
24,4916528.847776014
36,427500.0
72,337500.0
1207,604321.7552814904
1270,3884707.0924945245
2,2, 6, 2, 0, 2, 0.00,15.00,Thursday
24,4919312.686630764
36,427500.0
72,337500.0
1207,604321.7552814903
1270,3887490.931349275
2,2, 6, 2, 0, 2,15.00,30.00,Thursday
24,4875682.902055232
36,427500.0
72,337500.0
1207,604321.7552814903
1270,3843861.146773742
2,2, 6, 2, 0, 2,30.00,45.00,Thursday
24,4832091.335603204
36,427500.0
72,337500.0
1207,604321.7552814903
1270,3800269.580321714
2,2, 6, 2, 0, 2,45.00,60.00,Thursday
24,4788514.586087983
36,427500.0
72,337500.0
1207,604321.7552814903
1270,3756692.8308064933
2,2, 6, 2, 0, 3, 0.00,15.00,Thursday
24,4732280.053459056
36,427500.0
72,337500.0
1207,604321.7552814903
1270,3700458.298177566
2,2, 6, 2, 0, 3,15.00,30.00,Thursday
24,4712970.345649488
36,427500.0
72,337500.0
1207,604321.7552814903
1270,3681148.5903679985
2,2, 6, 2, 0, 3,30.00,45.00,Thursday
24,4710905.564103041
36,427500.0
72,337500.0
1207,604321.7552814903
1270,3679083.808821551
2,2, 6, 2, 0, 3,45.00,60.00,Thursday
24,4708958.917303241
36,427500.0
72,337500.0
1207,604321.7552814903
1270,3677137.162021751
2,2, 6, 2, 0, 4, 0.00,15.00,Thursday
24,4706601.729501607
36,427500.0
72,337500.0
1207,604321.7552814903
1270,3674779.974220117
2,2, 6, 2, 0, 4,15.00,30.00,Thursday
24,4704354.571826407
36,427500.0
72,337500.0
1207,604321.7552814903
1270,3672532.816544917
2,2, 6, 2, 0, 4,30.00,45.00,Thursday
24,4689979.665845451
36,427500.0
72,337500.0
1207,592095.5893558857
1270,3670384.0764895654
2,2, 6, 2, 0, 4,45.00,60.00,Thursday
24,5991158.896754837
36,427500.0
72,337500.0
1207,615658.6218250537
1270,4948000.274929782
2,2, 6, 2, 0, 5, 0.00,15.00,Thursday
24,6897575.166985762
36,427500.0
72,337500.0
1207,626995.4883686171
1270,5843079.678617145
2,2, 6, 2, 0, 5,15.00,30.00,Thursday
24,4697090.966242754
36,427500.0
72,337500.0
1207,604321.7552814903
1270,3665269.2109612636
2,2, 6, 2, 0, 5,30.00,45.00,Thursday
24,9558346.932084387
36,427500.0
72,337500.0
1207,653785.074101557
1270,8477061.85798283
2,2, 6, 2, 0, 5,45.00,60.00,Thursday
24,5141060.165815202
36,427500.0
72,337500.0
1207,646661.6708482851
1270,4066898.4949669163
2,2, 6, 2, 0, 6, 0.00,15.00,Thursday
24,4684400.42853974
36,427500.0
72,337500.0
1207,596008.8045641193
1270,3660891.623975621
2,2, 6, 2, 0, 6,15.00,30.00,Thursday
24,4677384.6409749435
36,427500.0
72,337500.0
1207,589606.758008379
1270,3660277.882966565
2,2, 6, 2, 0, 6,30.00,45.00,Thursday
24,4676781.447992838
36,427500.0
72,337500.0
1207,589606.758008379
1270,3659674.6899844585
2,2, 6, 2, 0, 6,45.00,60.00,Thursday
24,4676187.691219791
36,427500.0
72,337500.0
1207,589606.758008379
1270,3659080.9332114127
2,2, 6, 2, 0, 7, 0.00,15.00,Thursday
24,4681637.300871258
36,427500.0
72,337500.0
1207,594657.4726753496
1270,3659479.828195908
2,2, 6, 2, 0, 7,15.00,30.00,Thursday
24,4676986.568488358
36,427500.0
72,337500.0
1207,589606.758008379
1270,3659879.8104799795
2,2, 6, 2, 0, 7,30.00,45.00,Thursday
24,4677387.675040368
36,427500.0
72,337500.0
1207,589606.758008379
1270,3660280.9170319885
2,2, 6, 2, 0, 7,45.00,60.00,Thursday
24,4677789.853591302
36,427500.0
72,337500.0
1207,589606.758008379
1270,3660683.0955829234
2,2, 6, 2, 0, 8, 0.00,15.00,Thursday
24,4688431.21616062
36,427500.0
72,337500.0
1207,598593.5972320188
1270,3662337.618928601
2,2, 6, 2, 0, 8,15.00,30.00,Thursday
24,4686168.359511188
36,427500.0
72,337500.0
1207,594611.897537648
1270,3664056.461973541
2,2, 6, 2, 0, 8,30.00,45.00,Thursday
24,4684003.061462194
36,427500.0
72,337500.0
1207,590659.8455411211
1270,3665843.2159210728
2,2, 6, 2, 0, 8,45.00,60.00,Thursday
24,4684808.439502941
36,427500.0
72,337500.0
1207,589606.758008379
1270,3667701.681494562
2,2, 6, 2, 0, 9, 0.00,15.00,Thursday
24,12134145.017787723
36,7875000.0
72,6075000.0
1207,589606.758008379
1270,3669538.259779341
2,2, 6, 2, 0, 9,15.00,30.00,Thursday
24,12136042.655081252
36,7875000.0
72,6075000.0
1207,589606.758008379
1270,3671435.8970728708
2,2, 6, 2, 0, 9,30.00,45.00,Thursday
24,12137994.668818187
36,7875000.0
72,6075000.0
1207,589606.758008379
1270,3673387.910809806
2,2, 6, 2, 0, 9,45.00,60.00,Thursday
24,12141036.961398233
36,7875000.0
72,6075000.0
1207,590636.424864881
1270,3675400.5365333515
2,2, 6, 2, 0,10, 0.00,15.00,Thursday
24,14728849.789080312
36,10462500.0
72,6412500.0
1207,589606.758008379
1270,3676743.0310719316
2,2, 6, 2, 0,10,15.00,30.00,Thursday
24,14799122.40070976
36,10462500.0
72,6412500.0
1207,606158.6525347421
1270,3730463.7481750147
2,2, 6, 2, 0,10,30.00,45.00,Thursday
24,14731547.709547706
36,10462500.0
72,6412500.0
1207,589606.758008379
1270,3679440.9515393246
2,2, 6, 2, 0,10,45.00,60.00,Thursday
24,14843348.408047155
36,10462500.0
72,6412500.0
1207,602708.0847961698
1270,3778140.3232509852
2,2, 6, 2, 0,11, 0.00,15.00,Thursday
24,16151301.358165134
36,10800000.0
72,6750000.0
1207,639239.644305744
1270,4712061.71385939
2,2, 6, 2, 0,11,15.00,30.00,Thursday
24,16144130.10452503
36,10800000.0
72,6750000.0
1207,658809.217557668
1270,4685320.88696736
2,2, 6, 2, 0,11,30.00,45.00,Thursday
24,15154906.084975202
36,10800000.0
72,6750000.0
1207,603782.5858054697
1270,3751123.499169731
2,2, 6, 2, 0,11,45.00,60.00,Thursday
24,16416617.077431653
36,10800000.0
72,6750000.0
1207,651117.4672448738
1270,4965499.610186777
2,2, 6, 2, 0,12, 0.00,15.00,Thursday
24,15894908.98800403
36,10462500.0
72,6412500.0
1207,655517.6065866873
1270,4776891.381417343
2,2, 6, 2, 0,12,15.00,30.00,Thursday
24,16245152.626602795
36,10462500.0
72,6412500.0
1207,658159.397822944
1270,5124493.22877985
2,2, 6, 2, 0,12,30.00,45.00,Thursday
24,16590187.751796642
36,10462500.0
72,6412500.0
1207,681973.0033392836
1270,5445714.748457359
2,2, 6, 2, 0,12,45.00,60.00,Thursday
24,16086331.33795725
36,10462500.0
72,6412500.0
1207,648393.2785722159
1270,4975438.059385031
2,2, 6, 2, 0,13, 0.00,15.00,Thursday
24,13947501.832754007
36,9450000.0
72,5400000.0
1207,605743.3595981365
1270,3891758.4731558682
2,2, 6, 2, 0,13,15.00,30.00,Thursday
24,16086080.837454071
36,9450000.0
72,5400000.0
1207,729917.5123506922
1270,5906163.325103379
2,2, 6, 2, 0,13,30.00,45.00,Thursday
24,13842029.834926508
36,9450000.0
72,5400000.0
1207,598247.781041347
1270,3793782.0538851623
2,2, 6, 2, 0,13,45.00,60.00,Thursday
24,15078782.719409415
36,9450000.0
72,5400000.0
1207,680177.0287419425
1270,4948605.690667473
2,2, 6, 2, 0,14, 0.00,15.00,Thursday
24,14634486.30875594
36,10125000.0
72,6075000.0
1207,605562.4463422401
1270,3903923.8624136993
2,2, 6, 2, 0,14,15.00,30.00,Thursday
24,16615672.75647248
36,10125000.0
72,6075000.0
1207,709377.1773913563
1270,5781295.579081122
2,2, 6, 2, 0,14,30.00,45.00,Thursday
24,17502679.095907934
36,10125000.0
72,6075000.0
1207,762249.7316575785
1270,6615429.364250352
2,2, 6, 2, 0,14,45.00,60.00,Thursday
24,14541399.45851696
36,10125000.0
72,6075000.0
1207,597847.9640554162
1270,3818551.4944615415
2,2, 6, 2, 0,15, 0.00,15.00,Thursday
24,19591481.924632892
36,10350000.0
72,6750000.0
1207,1100150.2210341406
1270,8141331.703598749
2,2, 6, 2, 0,15,15.00,30.00,Thursday
24,14818371.370540043
36,10350000.0
72,6750000.0
1207,595082.9328304186
1270,3873288.437709624
2,2, 6, 2, 0,15,30.00,45.00,Thursday
24,17590415.345916796
36,10350000.0
72,6750000.0
1207,743810.1034520852
1270,6496605.24246471
2,2, 6, 2, 0,15,45.00,60.00,Thursday
24,17067127.854332685
36,10350000.0
72,6750000.0
1207,675993.2617565629
1270,6041134.592576119
2,2, 6, 2, 0,16, 0.00,15.00,Thursday
24,18333326.912321985
36,9900000.0
72,6750000.0
1207,833981.9538266744
1270,7599344.95849531
2,2, 6, 2, 0,16,15.00,30.00,Thursday
24,17995754.22855087
36,9900000.0
72,6750000.0
1207,772040.4321574741
1270,7323713.796393394
2,2, 6, 2, 0,16,30.00,45.00,Thursday
24,15130354.242540836
36,9900000.0
72,6750000.0
1207,611785.9774527347
1270,4618568.265088101
2,2, 6, 2, 0,16,45.00,60.00,Thursday
24,16208914.65903168
36,9900000.0
72,6750000.0
1207,654701.7110725704
1270,5654212.947959108
2,2, 6, 2, 0,17, 0.00,15.00,Thursday
24,16837333.65270023
36,9000000.0
72,6750000.0
1207,739435.3998334222
1270,7097898.25286681
2,2, 6, 2, 0,17,15.00,30.00,Thursday
24,14396587.886110393
36,9000000.0
72,6750000.0
1207,615912.413404303
1270,4780675.47270609
2,2, 6, 2, 0,17,30.00,45.00,Thursday
24,15756707.663871715
36,9000000.0
72,6750000.0
1207,672261.909858546
1270,6084445.754013167
2,2, 6, 2, 0,17,45.00,60.00,Thursday
24,16712019.136831457
36,9000000.0
72,6750000.0
1207,740136.4437645341
1270,6971882.693066922
2,2, 6, 2, 0,18, 0.00,15.00,Thursday
24,15393176.226981802
36,9000000.0
72,6750000.0
1207,653166.1175911787
1270,5740010.109390622
2,2, 6, 2, 0,18,15.00,30.00,Thursday
24,14957437.008114096
36,9000000.0
72,6750000.0
1207,640212.420849954
1270,5317224.587264142
2,2, 6, 2, 0,18,30.00,45.00,Thursday
24,13401536.109160164
36,9000000.0
72,6750000.0
1207,595750.7962012063
1270,3805785.3129589567
2,2, 6, 2, 0,18,45.00,60.00,Thursday
24,16314315.385716245
36,9000000.0
72,6750000.0
1207,800028.0326372352
1270,6514287.353079008
2,2, 6, 2, 0,19, 0.00,15.00,Thursday
24,9685930.910624087
36,5400000.0
72,4050000.0
1207,589606.758008379
1270,3696324.1526157055
2,2, 6, 2, 0,19,15.00,30.00,Thursday
24,9678762.795409348
36,5400000.0
72,4050000.0
1207,589606.758008379
1270,3689156.037400967
2,2, 6, 2, 0,19,30.00,45.00,Thursday
24,9677210.293240646
36,5400000.0
72,4050000.0
1207,589606.758008379
1270,3687603.535232266
2,2, 6, 2, 0,19,45.00,60.00,Thursday
24,9675674.767795984
36,5400000.0
72,4050000.0
1207,589606.758008379
1270,3686068.009787602
2,2, 6, 2, 0,20, 0.00,15.00,Thursday
24,8323924.972604295
36,4050000.0
72,2700000.0
1207,589606.758008379
1270,3684318.214595916
2,2, 6, 2, 0,20,15.00,30.00,Thursday
24,8322206.465363088
36,4050000.0
72,2700000.0
1207,589606.758008379
1270,3682599.707354709
2,2, 6, 2, 0,20,30.00,45.00,Thursday
24,8320519.3970257575
36,4050000.0
72,2700000.0
1207,589606.758008379
1270,3680912.6390173784
2,2, 6, 2, 0,20,45.00,60.00,Thursday
24,8318863.835651448
36,4050000.0
72,2700000.0
1207,589606.758008379
1270,3679257.077643069
2,2, 6, 2, 0,21, 0.00,15.00,Thursday
24,8318218.743387107
36,4050000.0
72,2700000.0
1207,589606.758008379
1270,3678611.985378728
2,2, 6, 2, 0,21,15.00,30.00,Thursday
24,8317555.4666432645
36,4050000.0
72,2700000.0
1207,589606.758008379
1270,3677948.7086348855
2,2, 6, 2, 0,21,30.00,45.00,Thursday
24,8316875.307324994
36,4050000.0
72,2700000.0
1207,589606.758008379
1270,3677268.5493166153
2,2, 6, 2, 0,21,45.00,60.00,Thursday
24,8316179.608768912
36,4050000.0
72,2700000.0
1207,589606.758008379
1270,3676572.850760534
2,2, 6, 2, 0,22, 0.00,15.00,Thursday
24,4693249.537737823
36,427500.0
72,337500.0
1207,589606.758008379
1270,3676142.7797294445
2,2, 6, 2, 0,22,15.00,30.00,Thursday
24,4692810.426655971
36,427500.0
72,337500.0
1207,589606.758008379
1270,3675703.668647592
2,2, 6, 2, 0,22,30.00,45.00,Thursday
24,4692362.809086477
36,427500.0
72,337500.0
1207,589606.758008379
1270,3675256.051078098
2,2, 6, 2, 0,22,45.00,60.00,Thursday
24,4691907.087910338
36,427500.0
72,337500.0
1207,589606.758008379
1270,3674800.3299019593
2,2, 6, 2, 0,23, 0.00,15.00,Thursday
24,4692239.222432032
36,427500.0
72,337500.0
1207,589606.758008379
1270,3675132.464423654
2,2, 6, 2, 0,23,15.00,30.00,Thursday
24,4692566.425907863
36,427500.0
72,337500.0
1207,589606.758008379
1270,3675459.667899485
2,2, 6, 2, 0,23,30.00,45.00,Thursday
24,4692888.672169635
36,427500.0
72,337500.0
1207,589606.758008379
1270,3675781.914161257
2,2, 6, 2, 0,23,45.00,60.00,Thursday
24,4693205.89339186
36,427500.0
72,337500.0
1207,589606.758008379
1270,3676099.1353834816
2,2, 6, 2, 0,24, 0.00,15.00,Thursday
24,4693414.651711298
36,427500.0
72,337500.0
1207,589606.758008379
1270,3676307.893702919
2,2, 6, 2, 0,24,15.00,30.00,Thursday
24,4693621.082161947
36,427500.0
72,337500.0
1207,589606.758008379
1270,3676514.324153569
2,2, 6, 2, 0,24,30.00,45.00,Thursday
24,4693825.213051618
36,427500.0
72,337500.0
1207,589606.758008379
1270,3676718.45504324
2,2, 6, 2, 0,24,45.00,60.00,Thursday
24,4694027.10916002
36,427500.0
72,337500.0
1207,589606.758008379
1270,3676920.351151642
2,3, 6, 3, 0, 1, 0.00,15.00,Friday
24,4694009.988473694
36,427500.0
72,337500.0
1207,589606.758008379
1270,3676903.230465315
2,3, 6, 3, 0, 1,15.00,30.00,Friday
24,4693988.966313649
36,427500.0
72,337500.0
1207,589606.758008379
1270,3676882.20830527
2,3, 6, 3, 0, 1,30.00,45.00,Friday
24,4702421.0969893625
36,427500.0
72,337500.0
1207,598063.7799470164
1270,3676857.317042346
2,3, 6, 3, 0, 1,45.00,60.00,Friday
24,4708650.29712482
36,427500.0
72,337500.0
1207,604321.7552814904
1270,3676828.54184333
2,3, 6, 3, 0, 2, 0.00,15.00,Friday
24,4708621.591733514
36,427500.0
72,337500.0
1207,604321.7552814903
1270,3676799.8364520245
2,3, 6, 3, 0, 2,15.00,30.00,Friday
24,4708589.055787797
36,427500.0
72,337500.0
1207,604321.7552814903
1270,3676767.3005063073
2,3, 6, 3, 0, 2,30.00,45.00,Friday
24,4708552.732512954
36,427500.0
72,337500.0
1207,604321.7552814903
1270,3676730.977231464
2,3, 6, 3, 0, 2,45.00,60.00,Friday
24,4708512.6699881805
36,427500.0
72,337500.0
1207,604321.7552814903
1270,3676690.9147066907
2,3, 6, 3, 0, 3, 0.00,15.00,Friday
24,4707037.015673561
36,427500.0
72,337500.0
1207,604321.7552814903
1270,3675215.260392071
2,3, 6, 3, 0, 3,15.00,30.00,Friday
24,4705606.7511489205
36,427500.0
72,337500.0
1207,604321.7552814903
1270,3673784.9958674307
2,3, 6, 3, 0, 3,30.00,45.00,Friday
24,4704219.825093202
36,427500.0
72,337500.0
1207,604321.7552814903
1270,3672398.0698117125
2,3, 6, 3, 0, 3,45.00,60.00,Friday
24,4702870.275749686
36,427500.0
72,337500.0
1207,604321.7552814903
1270,3671048.5204681964
2,3, 6, 3, 0, 4, 0.00,15.00,Friday
24,4700768.6933821635
36,427500.0
72,337500.0
1207,604321.7552814903
1270,3668946.9381006737
2,3, 6, 3, 0, 4,15.00,30.00,Friday
24,4698767.6431579655
36,427500.0
72,337500.0
1207,604321.7552814903
1270,3666945.8878764757
2,3, 6, 3, 0, 4,30.00,45.00,Friday
24,4685791.729796713
36,427500.0
72,337500.0
1207,593253.2287096054
1270,3665038.5010871077
2,3, 6, 3, 0, 4,45.00,60.00,Friday
24,4695040.317812149
36,427500.0
72,337500.0
1207,604321.7552814903
1270,3663218.562530659
2,3, 6, 3, 0, 5, 0.00,15.00,Friday
24,4684404.741386644
36,427500.0
72,337500.0
1207,595424.3644813816
1270,3661480.3769052615
2,3, 6, 3, 0, 5,15.00,30.00,Friday
24,4691640.45933965
36,427500.0
72,337500.0
1207,604321.7552814903
1270,3659818.7040581605
2,3, 6, 3, 0, 5,30.00,45.00,Friday
24,4685029.218670592
36,427500.0
72,337500.0
1207,599300.4726555683
1270,3658228.746015024
2,3, 6, 3, 0, 5,45.00,60.00,Friday
24,4688527.904421216
36,427500.0
72,337500.0
1207,604321.7552814903
1270,3656706.149139726
2,3, 6, 3, 0, 6, 0.00,15.00,Friday
24,4687664.095670965
36,427500.0
72,337500.0
1207,604321.7552814903
1270,3655842.3403894748
2,3, 6, 3, 0, 6,15.00,30.00,Friday
24,4686821.706573094
36,427500.0
72,337500.0
1207,604321.7552814903
1270,3654999.9512916044
2,3, 6, 3, 0, 6,30.00,45.00,Friday
24,4686000.093466973
36,427500.0
72,337500.0
1207,604321.7552814903
1270,3654178.338185483
2,3, 6, 3, 0, 6,45.00,60.00,Friday
24,4674435.534218039
36,427500.0
72,337500.0
1207,593558.8231213097
1270,3653376.711096729
2,3, 6, 3, 0, 7, 0.00,15.00,Friday
24,4682214.085125201
36,427500.0
72,337500.0
1207,601059.4135068717
1270,3653654.67161833
2,3, 6, 3, 0, 7,15.00,30.00,Friday
24,4685753.578626996
36,427500.0
72,337500.0
1207,604321.7552814903
1270,3653931.823345506
2,3, 6, 3, 0, 7,30.00,45.00,Friday
24,4671314.838841894
36,427500.0
72,337500.0
1207,589606.758008379
1270,3654208.080833514
2,3, 6, 3, 0, 7,45.00,60.00,Friday
24,4674669.300261493
36,427500.0
72,337500.0
1207,592685.8893299294
1270,3654483.4109315644
2,3, 6, 3, 0, 8, 0.00,15.00,Friday
24,4675154.71536381
36,427500.0
72,337500.0
1207,592279.3024973661
1270,3655375.412866444