Program Version,EnergyPlus, Version 23.2.0-7636e6b3e9, YMD=2025.06.03 20:58
1,5,Environment Title[],Latitude[deg],Longitude[deg],Time Zone[],Elevation[m]
2,8,Day of Simulation[],Month[],Day of Month[],DST Indicator[1=yes 0=no],Hour[],StartMinute[],EndMinute[],DayType
3,5,Cumulative Day of Simulation[],Month[],Day of Month[],DST Indicator[1=yes 0=no],DayType  ! When Daily Report Variables Requested
4,2,Cumulative Days of Simulation[],Month[]  ! When Monthly Report Variables Requested
5,1,Cumulative Days of Simulation[] ! When Run Period Report Variables Requested
6,1,Calendar Year of Simulation[] ! When Annual Report Variables Requested
7,1,Environment,Site Outdoor Air Drybulb Temperature [C] !TimeStep
18,1,SPACE1-1,Space People Occupant Count [] !TimeStep
19,1,SPACE2-1,Space People Occupant Count [] !TimeStep
20,1,SPACE3-1,Space People Occupant Count [] !TimeStep
21,1,SPACE4-1,Space People Occupant Count [] !TimeStep
22,1,SPACE5-1,Space People Occupant Count [] !TimeStep
465,1,PLENUM-1,Zone Air Temperature [C] !TimeStep
600,1,PLENUM-1,Zone Thermostat Heating Setpoint Temperature [C] !TimeStep
601,1,PLENUM-1,Zone Thermostat Cooling Setpoint Temperature [C] !TimeStep
602,1,SPACE1-1,Zone Air Temperature [C] !TimeStep
666,1,SPACE1-1,Zone Thermostat Heating Setpoint Temperature [C] !TimeStep
667,1,SPACE1-1,Zone Thermostat Cooling Setpoint Temperature [C] !TimeStep
668,1,SPACE2-1,Zone Air Temperature [C] !TimeStep
732,1,SPACE2-1,Zone Thermostat Heating Setpoint Temperature [C] !TimeStep
733,1,SPACE2-1,Zone Thermostat Cooling Setpoint Temperature [C] !TimeStep
734,1,SPACE3-1,Zone Air Temperature [C] !TimeStep
798,1,SPACE3-1,Zone Thermostat Heating Setpoint Temperature [C] !TimeStep
799,1,SPACE3-1,Zone Thermostat Cooling Setpoint Temperature [C] !TimeStep
800,1,SPACE4-1,Zone Air Temperature [C] !TimeStep
864,1,SPACE4-1,Zone Thermostat Heating Setpoint Temperature [C] !TimeStep
865,1,SPACE4-1,Zone Thermostat Cooling Setpoint Temperature [C] !TimeStep
866,1,SPACE5-1,Zone Air Temperature [C] !TimeStep
930,1,SPACE5-1,Zone Thermostat Heating Setpoint Temperature [C] !TimeStep
931,1,SPACE5-1,Zone Thermostat Cooling Setpoint Temperature [C] !TimeStep
1079,1,SPACE1-1 PEOPLE 1,Zone Thermal Comfort Fanger Model PPD [%] !TimeStep
1080,1,SPACE2-1 PEOPLE 1,Zone Thermal Comfort Fanger Model PPD [%] !TimeStep
1081,1,SPACE3-1 PEOPLE 1,Zone Thermal Comfort Fanger Model PPD [%] !TimeStep
1082,1,SPACE4-1 PEOPLE 1,Zone Thermal Comfort Fanger Model PPD [%] !TimeStep
1083,1,SPACE5-1 PEOPLE 1,Zone Thermal Comfort Fanger Model PPD [%] !TimeStep
End of Data Dictionary
1,RUN PERIOD 2,  36.60, 117.05,   8.00, 170.30
2,1, 6, 1, 0, 1, 0.00,15.00,Wednesday
7,24.275000000000002
18,0.0
19,0.0
20,0.0
21,0.0
22,0.0
1079,30.905988486930937
1080,31.518774410665316
1081,31.06559185718828
1082,32.13820704319079
1083,29.48055532546927
465,24.260686518263977
600,0.0
601,0.0
602,22.324232830665583
666,15.0
667,25.0
668,22.28561830027305
732,15.0
733,25.0
734,22.3122749283898
798,15.0
799,25.0
800,22.241790323284302
864,15.0
865,25.0
866,22.37234617812264
930,15.0
931,25.0
2,1, 6, 1, 0, 1,15.00,30.00,Wednesday
7,24.25
18,0.0
19,0.0
20,0.0
21,0.0
22,0.0
1079,31.288030461582068
1080,31.906913235611384
1081,48.30805772839115
1082,32.51506777916384
1083,29.891068064830932
465,23.706382611307582
600,0.0
601,0.0
602,22.30172985721579
666,14.999999999999996
667,29.999999999999993
668,22.262786962711886
732,14.999999999999996
733,29.999999999999993
734,20.419284963195718
798,14.999999999999996
799,19.999999999999996
800,22.219042283176048
864,14.999999999999996
865,24.7213819026947
866,22.349540534350105
930,14.999999999999996
931,27.133407592773434
2,1, 6, 1, 0, 1,30.00,45.00,Wednesday
7,24.224999999999998
18,0.0
19,0.0
20,0.0
21,0.0
22,0.0
1079,31.875488226608255
1080,32.47382882655951
1081,48.87162623140169
1082,33.049995060397535
1083,32.165749097532384
465,23.632523565939078
600,0.0
601,0.0
602,22.282941363400216
666,15.000000000000004
667,30.000000000000007
668,22.245057055699665
732,15.000000000000004
733,25.000000000000007
734,20.623912194236148
798,15.000000000000004
799,25.000000000000007
800,22.203213519873756
864,15.000000000000004
865,25.87928795814515
866,22.142186435560784
930,15.000000000000004
931,22.13340759277344
2,1, 6, 1, 0, 1,45.00,60.00,Wednesday
7,24.2
18,0.0
19,0.0
20,0.0
21,0.0
22,0.0
1079,32.51683129899067
1080,33.11666872736812
1081,42.24232461400391
1082,33.71226270704504
1083,32.14874386137154
465,23.69701117478628
600,0.0
601,0.0
602,22.234151504823746
666,15.0
667,30.0
668,22.196025899148562
732,17.59543514251709
733,30.0
734,21.321644032455687
798,16.766767740249634
799,30.0
800,22.152660628385842
864,15.0
865,27.85306966304779
866,22.179920736660993
930,15.0
931,27.133407592773438
2,1, 6, 1, 0, 2, 0.00,15.00,Wednesday
7,24.424999999999997
18,0.0
19,0.0
20,0.0
21,0.0
22,0.0
1079,32.85774618915026
1080,33.477944299445156
1081,39.32417703909998
1082,34.08212529411617
1083,32.175717095861955
465,23.66681935088903
600,0.0
601,0.0
602,22.21271687560866
666,15.0
667,30.0
668,22.174113688199128
732,15.0
733,25.0
734,21.570154035145165
798,15.0
799,25.0
800,22.13022663195933
864,15.0
865,26.370001435279846
866,22.190725540596496
930,15.0
931,22.19105339050293
2,1, 6, 1, 0, 2,15.00,30.00,Wednesday
7,24.65
18,0.0
19,0.0
20,0.0
21,0.0
22,0.0
1079,33.13246912105822
1080,33.76968038728995
1081,37.48758902514456
1082,41.52160532469964
1083,32.41182515690916
465,23.572688300642696
600,0.0
601,0.0
602,22.193641692290512
666,15.0
667,30.0
668,22.15433639575692
732,15.0
733,29.600447654724118
734,21.779919697183974
798,15.0
799,27.170773983001705
800,21.314720136033937
864,16.62250065803528
865,21.370001435279846
866,22.183210212050895
930,15.0
931,27.19105339050293
2,1, 6, 1, 0, 2,30.00,45.00,Wednesday
7,24.875000000000004
18,0.0
19,0.0
20,0.0
21,0.0
22,0.0
1079,33.522614288912905
1080,34.18107046921179
1081,35.922003104079465
1082,41.83657907844356
1083,32.78954920504421
465,23.499880206318778
600,0.0
601,0.0
602,22.168193352372803
666,15.0
667,30.0
668,22.127622229280906
732,15.0
733,25.736913919448853
734,21.964466521123995
798,15.0
799,22.17077398300171
800,21.375097243664555
864,15.0
865,25.624096989631653
866,22.166063875992702
930,15.0
931,26.27697890996933
2,1, 6, 1, 0, 2,45.00,60.00,Wednesday
7,25.1
18,0.0
19,0.0
20,0.0
21,0.0
22,0.0
1079,33.5312981524158
1080,34.22229822640719
1081,35.43589470357087
1082,38.92123109182329
1083,42.01686969959034
465,23.296798647262506
600,0.0
601,0.0
602,22.171773811151336
666,15.0
667,30.0
668,22.129627610034113
732,15.0
733,30.0
734,22.01770461197291
798,15.0
799,25.42560386657715
800,21.703478483970837
864,15.0
865,24.529199719429013
866,21.149848019209685
930,16.343032121658325
931,21.27697890996933
2,1, 6, 1, 0, 3, 0.00,15.00,Wednesday
7,25.300000000000004
18,0.0
19,0.0
20,0.0
21,0.0
22,0.0
1079,33.83933347204622
1080,34.63059783555835
1081,48.6811567529409
1082,37.85201336811836
1083,38.968165290869365
465,23.12786833860862
600,0.0
601,0.0
602,22.153836245786692
666,20.0
667,30.0
668,22.106098270785246
732,15.0
733,27.383588552474976
734,20.586427466036504
798,16.950048208236694
799,20.425603866577152
800,21.81769838428804
864,20.0
865,25.47933918237686
866,21.588191279347516
930,15.0
931,26.020492017269135
2,1, 6, 1, 0, 3,15.00,30.00,Wednesday
7,25.5
18,0.0
19,0.0
20,0.0
21,0.0
22,0.0
1079,34.20323401067377
1080,35.05645556855913
1081,42.89371554321874
1082,37.65741965999817
1083,36.90368092248864
465,23.181204627173862
600,0.0
601,0.0
602,22.143106899278912
666,19.488775432109833
667,30.0
668,22.090991426471895
732,15.0
733,27.032794952392578
734,21.366709780690186
798,18.218349814414978
799,23.039827346801758
800,21.86482485684335
864,15.0
865,25.118960559368134
866,21.80436299395899
930,15.0
931,21.966083467006683
2,1, 6, 1, 0, 3,30.00,45.00,Wednesday
7,25.699999999999996
18,0.0
19,0.0
20,0.0
21,0.0
22,0.0
1079,34.385976048625764
1080,35.291801901860524
1081,39.90907168315456
1082,37.26114274522453
1083,53.03429472747306
465,22.5962405468849
600,0.0
601,0.0
602,22.121232114241597
666,15.847490727901484
667,30.000000000000043
668,22.06477129298151
732,15.000000000000021
733,30.000000000000043
734,21.617247557364955
798,15.000000000000021
799,25.767352104187054
800,21.90954195482794
864,15.000000000000021
865,30.000000000000043
866,20.077100027427303
930,15.000000000000021
931,16.966083467006708
2,1, 6, 1, 0, 3,45.00,60.00,Wednesday
7,25.9
18,0.0
19,0.0
20,0.0
21,0.0
22,0.0
1079,35.033846325032655
1080,36.10114431914663
1081,48.286368099589346
1082,37.718776127666196
1083,46.83846508393768
465,22.72592540033333
600,0.0
601,0.0
602,22.101944914760654
666,15.0
667,30.0
668,22.038058064175832
732,15.782899260520935
733,24.999999999999996
734,20.767740135746735
798,15.0
799,20.76735210418701
800,21.91535241357948
864,15.14349639415741
865,26.42543053627014
866,21.030928579856926
930,16.636098384857178
931,21.54747861623764
2,1, 6, 1, 0, 4, 0.00,15.00,Wednesday
7,25.974999999999998
18,0.0
19,0.0
20,0.0
21,0.0
22,0.0
1079,35.25732074014344
1080,36.31027020993055
1081,43.03567209157508
1082,37.67729590181857
1083,42.772515522425586
465,22.80122028561863
600,0.0
601,0.0
602,22.075183240406698
666,15.0
667,30.0
668,22.00850895308518
732,17.786763548851013
733,30.0
734,21.39470668896417
798,15.0
799,22.497123956680298
800,21.910604146863804
864,15.0
865,30.0
866,21.261722812076542
930,15.0
931,23.903967559337616
2,1, 6, 1, 0, 4,15.00,30.00,Wednesday
7,26.049999999999997
18,0.0
19,0.0
20,0.0
21,0.0
22,0.0
1079,35.39430880872841
1080,36.432774652920074
1081,40.12389549672607
1082,37.662842039616116
1083,41.45861733960566
465,22.836174422410554
600,0.0
601,0.0
602,22.06623216939977
666,15.0
667,30.0
668,22.00042061587182
732,20.21663463115692
733,26.852164030075073
734,21.641769846155597
798,15.0
799,27.497123956680298
800,21.914645413910684
864,15.0
865,25.876384735107422
866,21.410197377560092
930,15.0
931,28.903967559337616
2,1, 6, 1, 0, 4,30.00,45.00,Wednesday
7,26.125
18,0.0
19,0.0
20,0.0
21,0.0
22,0.0
1079,35.5557042370658
1080,36.59728926527536
1081,38.687627432055464
1082,37.67610696807931
1083,39.36258416808375
465,22.8569677910188
600,0.0
601,0.0
602,22.057265959474353
666,15.0
667,30.0
668,21.991406364043723
732,15.216634631156921
733,28.508084774017334
734,21.803999047224643
798,15.0
799,22.497123956680298
800,21.9197349947644
864,15.0
865,27.154287815093994
866,21.649131099733943
930,15.0
931,23.960997760295868
2,1, 6, 1, 0, 4,45.00,60.00,Wednesday
7,26.2
18,0.0
19,0.0
20,0.0
21,0.0
22,0.0
1079,35.71147036028336
1080,36.79597458771792
1081,37.678149883332964
1082,37.675139840598966
1083,37.599243075169376
465,22.850425862208123
600,0.0
601,0.0
602,22.05064632688712
666,15.0
667,30.0
668,21.982346793608578
732,15.0
733,30.0
734,21.91793761285958
798,15.0
799,22.636736512184143
800,21.924947642930263
864,15.0
865,30.0
866,21.85623905213839
930,15.0
931,28.960997760295868
2,1, 6, 1, 0, 5, 0.00,15.00,Wednesday
7,26.2
18,0.0
19,0.0
20,0.0
21,0.0
22,0.0
1079,35.83602169971728
1080,36.92886251354541
1081,37.1329693689711
1082,37.705446599515945
1083,36.61141626528859
465,22.830758971185308
600,0.0
601,0.0
602,22.048230478609668
666,15.0
667,30.0
668,21.978396940382886
732,15.0
733,29.007243990898132
734,21.97554624476254
798,15.0
799,22.915685653686523
800,21.928687309812723
864,15.0
865,25.7099609375
866,21.9648788490477
930,15.0
931,25.059398353099823
2,1, 6, 1, 0, 5,15.00,30.00,Wednesday
7,26.2
18,0.0
19,0.0
20,0.0
21,0.0
22,0.0
1079,35.790652467341175
1080,36.86807943375072
1081,40.31780809570562
1082,37.63564261831736
1083,36.693203559130566
465,22.788483326847008
600,0.0
601,0.0
602,22.052288765627644
666,15.0
667,30.0
668,21.983411059389915
732,15.0
733,30.0
734,21.607877635078992
798,15.0
799,21.618743658065796
800,21.93278771242572
864,15.0
865,26.710170030593872
866,21.948216448467072
930,16.895445823669434
931,30.0
2,1, 6, 1, 0, 5,30.00,45.00,Wednesday
7,26.2
18,0.0
19,0.0
20,0.0
21,0.0
22,0.0
1079,35.84271601267872
1080,36.90689168638433
1081,40.37317278478711
1082,37.65781768171599
1083,36.82039240238314
465,22.755770053916223
600,0.0
601,0.0
602,22.05198082645231
666,15.0
667,29.85744148492813
668,21.983828940869685
732,15.0
733,30.0
734,21.636273274970886
798,15.0
799,23.417102575302124
800,21.933245550112012
864,19.133566856384277
865,29.023097038269043
866,21.941266759823808
930,15.0
931,28.544249296188354
2,1, 6, 1, 0, 5,45.00,60.00,Wednesday
7,26.2
18,0.0
19,0.0
20,0.0
21,0.0
22,0.0
1079,35.92149484273611
1080,37.010895149418175
1081,38.63676921641019
1082,37.72728617087248
1083,36.768142888252925
465,22.729045640061813
600,0.0
601,0.0
602,22.05083843831093
666,15.0
667,30.0
668,21.981523448922506
732,15.0
733,30.0
734,21.844788544626724
798,15.0
799,28.417102575302124
800,21.932714222955255
864,15.0
865,24.023097038269043
866,21.95774661840207
930,20.0
931,23.544249296188354
2,1, 6, 1, 0, 6, 0.00,15.00,Wednesday
7,26.174999999999997
18,0.0
19,0.0
20,0.0
21,0.0
22,0.0
1079,35.8758492670367
1080,36.955899683249534
1081,37.91605717419079
1082,37.643685918410945
1083,53.75818767883864
465,22.22048614320516
600,0.0
601,0.0
602,22.05040499515194
666,15.0
667,30.0
668,21.980821442800824
732,15.0
733,30.0
734,21.903178948160203
798,15.0
799,23.417102575302124
800,21.933065163642144
864,15.0
865,29.023097038269043
866,20.124587317792898
930,15.0
931,18.544249296188354
2,1, 6, 1, 0, 6,15.00,30.00,Wednesday
7,26.15
18,0.0
19,0.0
20,0.0
21,0.0
22,0.0
1079,35.77474610794434
1080,36.863580800500685
1081,37.412519482684054
1082,37.48047964770685
1083,56.17030872294842
465,22.18051518484728
600,0.0
601,0.0
602,22.100267965573906
666,17.00307607650757
667,30.0
668,22.031974024046942
732,16.62874698638916
733,30.0
734,21.988329586108737
798,15.0
799,28.417102575302124
800,21.989174234243702
864,15.0
865,29.652707815170288
866,20.170694053363324
930,15.0
931,23.544249296188354
2,1, 6, 1, 0, 6,30.00,45.00,Wednesday
7,26.125000000000004
18,0.0
19,0.0
20,0.0
21,0.0
22,0.0
1079,35.797865747451
1080,36.70609002987214
1081,36.87992143788863
1082,37.49419867770666
1083,48.49187327369761
465,22.34027103527372
600,0.0
601,0.0
602,22.06206898325833
666,15.0
667,30.0
668,22.000251144353058
732,19.968195915222168
733,28.430161476135254
734,21.989147762326276
798,15.0
799,23.417102575302124
800,21.947429483688737
864,15.0
865,29.928778171539307
866,20.834168059929794
930,15.0
931,28.544249296188354
2,1, 6, 1, 0, 6,45.00,60.00,Wednesday
7,26.1
18,0.0
19,0.0
20,0.0
21,0.0
22,0.0
1079,35.512886464052826
1080,36.11138738781503
1081,35.82263802380412
1082,37.14483134613119
1083,40.35892819608006
465,22.485193624449586
600,0.0
601,0.0
602,22.06084621123901
666,15.0
667,30.0
668,22.019045416653963
732,19.09777945280075
733,30.0
734,22.047916992124264
798,15.0
799,27.688647031784054
800,21.94897921101692
864,15.0
865,26.609108209609985
866,21.598346040654075
930,15.0
931,23.544249296188354
2,1, 6, 1, 0, 7, 0.00,15.00,Wednesday
7,26.125000000000004
18,0.0
19,0.0
20,0.0
21,0.0
22,0.0
1079,34.61054235623365
1080,34.89618529460101
1081,34.53867017533008
1082,36.14920148283575
1083,39.349789353416014
465,22.508428149029946
600,0.0
601,0.0
602,22.10919732140298
666,15.0
667,30.0
668,22.08545537764899
732,15.0
733,29.082351803779602
734,22.115787996250035
798,16.263203859329224
799,22.688647031784058
800,22.002371679930807
864,15.0
865,30.0
866,21.62480605099431
930,15.0
931,26.533421277999878
2,1, 6, 1, 0, 7,15.00,30.00,Wednesday
7,26.15
18,0.0
19,0.0
20,0.0
21,0.0
22,0.0
1079,33.459137239092186
1080,33.32695826743621
1081,32.90822335123673
1082,34.91620648014165
1083,38.15674354923987
465,22.55750110576967
600,0.0
601,0.0
602,22.187227486714804
666,15.0
667,30.0
668,22.193809836395367
732,15.0
733,30.0
734,22.228779288918464
798,15.0
799,27.688647031784058
800,22.085233510031806
864,16.574005126953125
865,28.736432313919067
866,21.71151373511726
930,15.0
931,26.516960859298706
2,1, 6, 1, 0, 7,30.00,45.00,Wednesday
7,26.174999999999997
18,0.0
19,0.0
20,0.0
21,0.0
22,0.0
1079,32.236125649361455
1080,31.668203582611284
1081,31.186776132262125
1082,33.59037866749463
1083,36.028388921048716
465,22.620987074317913
600,0.0
601,0.0
602,22.27536571911533
666,15.0
667,30.0
668,22.31714800629871
732,15.0
733,30.0
734,22.360611115420724
798,15.0
799,27.405009239912033
800,22.177903636575948
864,16.54072278738022
865,30.0
866,21.91691823131305
930,15.0
931,30.0
2,1, 6, 1, 0, 7,45.00,60.00,Wednesday
7,26.2
18,0.0
19,0.0
20,0.0
21,0.0
22,0.0
1079,30.96828380820648
1080,29.97470249318347
1081,29.470426623836047
1082,32.210589822630396
1083,33.75753670370989
465,22.68746254678007
600,0.0
601,0.0
602,22.365102451194737
666,15.0
667,30.0
668,22.44077713099611
732,15.0
733,30.0
734,22.488818094640006
798,15.0
799,24.05672451853752
800,22.27256118305802
864,15.0
865,26.10570478439331
866,22.1179102162191
930,17.530765533447266
931,30.0
2,1, 6, 1, 0, 8, 0.00,15.00,Wednesday
7,26.275
18,0.0
19,0.0
20,0.0
21,0.0
22,0.0
1079,29.877028104213025
1080,28.51493997265578
1081,28.08138704437495
1082,31.04970464541539
1083,32.206318961762605
465,22.762849292374902
600,0.0
601,0.0
602,22.441378747374742
666,15.0
667,29.208661317825317
668,22.54759104547571
732,18.312073945999146
733,30.0
734,22.591894617758857
798,17.127283096313477
799,23.860429137945175
800,22.352181268207985
864,15.0
865,30.0
866,22.243336130050665
930,15.0
931,25.0
2,1, 6, 1, 0, 8,15.00,30.00,Wednesday
7,26.35
18,0.0
19,0.0
20,0.0
21,0.0
22,0.0
1079,28.80990885297109
1080,27.10735250535481
1081,26.819629437001865
1082,29.906992068298834
1083,31.14492432463335
465,22.850081138421224
600,0.0
601,0.0
602,22.5182150330982
666,15.0
667,30.0
668,22.653404632908607
732,15.0
733,30.0
734,22.68641239338139
798,15.0
799,28.860429137945175
800,22.432019174337768
864,15.0
865,30.0
866,22.318812188703497
930,15.0
931,30.0
2,1, 6, 1, 0, 8,30.00,45.00,Wednesday
7,26.425
18,0.0
19,0.0
20,0.0
21,0.0
22,0.0
1079,27.686531953059117
1080,25.67683139841199
1081,25.577625802019085
1082,28.721347015078464
1083,30.216360079570364
465,22.949869392690008
600,0.0
601,0.0
602,22.603439488658914
666,15.0
667,30.0
668,22.767069299177685
732,15.0
733,30.0
734,22.78429988878748
798,15.0
799,24.486806720495224
800,22.519681848097733
864,15.0
865,30.0
866,22.38260857813129
930,15.0
931,25.99252462387085
2,1, 6, 1, 0, 8,45.00,60.00,Wednesday
7,26.5
18,0.0
19,0.0
20,0.0
21,0.0
22,0.0
1079,26.529643544799313
1080,24.23791942157544
1081,24.351750920829076
1082,27.508932639933576
1083,29.259940273793276
465,23.063216273045466
600,0.0
601,0.0
602,22.694931405943237
666,15.0
667,30.0
668,22.886925802296336
732,15.0
733,30.0
734,22.88573223077301
798,15.0
799,26.905322164297104
800,22.61281671357324
864,15.0
865,27.022374868392944
866,22.452363240318174
930,15.0
931,30.0
2,1, 6, 1, 0, 9, 0.00,15.00,Wednesday
7,26.725
18,11.0
19,5.0
20,11.0
21,5.0
22,20.0
1079,14.955488394718571
1080,12.993467094574186
1081,13.332784252859398
1082,15.389227052477267
1083,16.869473894362045
465,24.260087893858724
600,0.0
601,0.0
602,23.960923846486423
666,15.0
667,30.0
668,24.20720803968877
732,15.0
733,30.0
734,24.16669365414042
798,15.0
799,30.0
800,23.908992320858378
864,15.0
865,30.0
866,23.73266062303184
930,15.0
931,25.0
2,1, 6, 1, 0, 9,15.00,30.00,Wednesday
7,26.95
18,11.0
19,5.0
20,11.0
21,5.0
22,20.0
1079,9.62692060095138
1080,8.199212250904182
1081,8.509950087093912
1082,9.848210704417667
1083,10.917633998989459
465,24.732159341474947
600,0.0
601,0.0
602,24.75495274656768
666,19.999999999999996
667,30.0
668,25.00602847354803
732,15.0
733,28.893605351448056
734,24.961919045419894
798,15.0
799,30.0
800,24.701890023409934
864,15.0
865,30.0
866,24.590654404904438
930,15.0
931,30.0
2,1, 6, 1, 0, 9,30.00,45.00,Wednesday
7,27.174999999999997
18,11.0
19,5.0
20,11.0
21,5.0
22,20.0
1079,7.0440587322407
1080,6.093325229883504
1081,6.669980984648419
1082,8.026868099832782
1083,7.877126982417209
465,25.19953075287389
600,0.0
601,0.0
602,25.356310067730824
666,15.0
667,30.0
668,25.6105464379433
732,15.0
733,30.0
734,25.387567636470273
798,15.0
799,25.518068313598633
800,24.968874445242584
864,15.0
865,25.019394397735596
866,25.262051428628695
930,15.0
931,30.0
2,1, 6, 1, 0, 9,45.00,60.00,Wednesday
7,27.4
18,11.0
19,5.0
20,11.0
21,5.0
22,20.0
1079,5.719567819063087
1080,5.165216405911494
1081,5.374072971638
1082,6.012961282033842
1083,6.17264828224728
465,25.58651000992751
600,0.0
601,0.0
602,25.80116479697371
666,15.0
667,30.0
668,26.08936282320201
732,15.0
733,27.19801926612854
734,25.984980051334244
798,15.0
799,30.0
800,25.652706859419503
864,15.0
865,27.210388422012326
866,25.777738404014727
930,15.0
931,30.0
2,1, 6, 1, 0,10, 0.00,15.00,Wednesday
7,27.775
18,11.0
19,5.0
20,11.0
21,5.0
22,20.0
1079,5.0177164376954835
1080,5.460486401982706
1081,5.147872545755959
1082,5.000247978912569
1083,7.26463238508731
465,26.010152505557148
600,0.0
601,0.0
602,26.689387912734595
666,15.0
667,29.996506050229073
668,25.433648240741995
732,15.0
733,25.421578884124756
734,26.866177845122234
798,15.0
799,28.42302703857422
800,26.534823106417953
864,15.0
865,29.05712580680847
866,25.014920375838415
930,15.0
931,25.0
2,1, 6, 1, 0,10,15.00,30.00,Wednesday
7,28.15
18,11.0
19,5.0
20,11.0
21,5.0
22,20.0
1079,5.101453624587805
1080,5.356831040128554
1081,7.485046438271354
1082,7.347727380598172
1083,5.0737078808233065
465,26.21133265871482
600,0.0
601,0.0
602,25.857649111103356
666,15.00000000000001
667,25.832152679562586
668,26.86037156134751
732,15.00000000000001
733,28.716330051422144
734,24.193362036130186
798,15.00000000000001
799,23.423027038574237
800,24.351622752650083
864,15.00000000000001
865,24.057125806808482
866,26.428366437793443
930,16.021196603775035
931,27.493849277496352
2,1, 6, 1, 0,10,30.00,45.00,Wednesday
7,28.525
18,11.0
19,5.0
20,11.0
21,5.0
22,20.0
1079,5.3819856775494515
1080,6.632983889979684
1081,5.499765617472903
1082,5.027524684772871
1083,8.28144061696581
465,26.458399876741005
600,0.0
601,0.0
602,26.978399668057968
666,15.000000000000004
667,29.670522764325153
668,27.4431746376533
732,15.000000000000004
733,28.43686324357987
734,25.506123905258953
798,15.000000000000004
799,25.6637682914734
800,26.15600981825598
864,16.140093803405765
865,29.057125806808475
866,24.34865325028012
930,15.000000000000004
931,22.69986724853516
2,1, 6, 1, 0,10,45.00,60.00,Wednesday
7,28.9
18,11.0
19,5.0
20,11.0
21,5.0
22,20.0
1079,5.5057888636650745
1080,7.9911760632272575
1081,5.2619831067621305
1082,5.3557604548816045
1083,5.468272324972602
465,26.9510217503647
600,0.0
601,0.0
602,25.162704124827773
666,15.0
667,24.957164362072945
668,27.861299828498208
732,15.0
733,28.2816920876503
734,26.749267771500808
798,15.0
799,30.0
800,26.774870644502787
864,15.0
865,26.977294445037842
866,25.930009300950235
930,15.0
931,27.699867248535156
2,1, 6, 1, 0,11, 0.00,15.00,Wednesday
7,29.249999999999996
18,11.0
19,5.0
20,11.0
21,5.0
22,20.0
1079,5.000031088902773
1080,6.094288216696398
1081,5.35836624651165
1082,6.613289793500442
1083,8.623638328829472
465,26.709927986403283
600,0.0
601,0.0
602,26.12882854481739
666,15.0
667,26.27999384701252
668,24.36673156548669
732,15.0
733,23.2816920876503
734,25.16267274244681
798,15.0
799,24.99999999999999
800,27.440881916996158
864,15.0
865,30.0
866,24.121001201054884
930,15.0
931,22.699867248535156
2,1, 6, 1, 0,11,15.00,30.00,Wednesday
7,29.6
18,11.0
19,5.0
20,11.0
21,5.0
22,20.0
1079,5.74946089108677
1080,5.381940741975001
1081,5.353075703834193
1082,5.254904781982901
1083,6.806208666034252
465,27.32218457035287
600,0.0
601,0.0
602,27.049344474457957
666,14.999999999999996
667,27.56932516396045
668,25.33558404319776
732,14.999999999999996
733,25.391322433948517
734,26.77506861482664
798,15.500762462615963
799,28.926216125488278
800,25.211549153762576
864,14.999999999999996
865,24.999999999999993
866,25.085473232708985
930,14.999999999999996
931,25.209784269332882
2,1, 6, 1, 0,11,30.00,45.00,Wednesday
7,29.950000000000003
18,11.0
19,5.0
20,11.0
21,5.0
22,20.0
1079,7.362921166967681
1080,5.775001186165696
1081,5.682857966422844
1082,5.629947919238049
1083,5.0052728542693075
465,27.410534035546387
600,0.0
601,0.0
602,23.914072864416017
666,15.000000000000004
667,22.56932516396046
668,26.83970907230891
732,15.000000000000004
733,27.967023193836212
734,26.710094702896956
798,15.000000000000004
799,26.710347175598145
800,26.8392340421762
864,15.000000000000004
865,29.44432115554811
866,26.470164620375286
930,15.820720791816715
931,30.000000000000007
2,1, 6, 1, 0,11,45.00,60.00,Wednesday
7,30.3
18,11.0
19,5.0
20,11.0
21,5.0
22,20.0
1079,5.006585076408555
1080,6.717968004188734
1081,7.8106439424189205
1082,5.5188576182898
1083,5.63335242933276
465,27.550965590268415
600,0.0
601,0.0
602,26.01045271569777
666,14.999999999999979
667,27.569325163960414
668,23.899073026004725
732,14.999999999999979
733,22.967023193836173
734,27.65289819498629
798,14.999999999999979
799,29.197171449661212
800,24.715786514911173
864,14.999999999999979
865,24.444321155548057
866,25.18428190019984
930,14.999999999999979
931,24.999999999999968
2,1, 6, 1, 0,12, 0.00,15.00,Wednesday
7,30.475
18,8.8
19,4.0
20,8.8
21,4.0
22,16.0
1079,8.440208942509628
1080,5.009985110274428
1081,9.668864011684647
1082,5.359653242378968
1083,5.119220659670205
465,27.73494459534026
600,0.0
601,0.0
602,23.445988247888977
666,15.0
667,22.569325163960457
668,25.728450976327103
732,15.0
733,26.095643579959873
734,28.02758383489415
798,15.19953191280365
799,30.0
800,26.500953974245267
864,16.563660144805908
865,29.444321155548096
866,26.65423124154359
930,15.0
931,30.0
2,1, 6, 1, 0,12,15.00,30.00,Wednesday
7,30.65
18,8.8
19,4.0
20,8.8
21,4.0
22,16.0
1079,5.050261729229177
1080,8.18156669191714
1081,5.041998600526654
1082,5.458223096130482
1083,5.398409064799949
465,27.637910362541085
600,0.0
601,0.0
602,25.743659622142644
666,15.0
667,27.569325163960457
668,23.33977993292461
732,15.0
733,21.637047350406647
734,25.56874782897075
798,15.0
799,25.18446445465088
800,24.642311459167665
864,15.0
865,24.444321155548096
866,25.220411635029357
930,15.0
931,25.0
2,1, 6, 1, 0,12,30.00,45.00,Wednesday
7,30.825
18,8.8
19,4.0
20,8.8
21,4.0
22,16.0
1079,5.808527147692203
1080,5.039603591002759
1081,5.426628954615126
1082,5.368205326800975
1083,5.19290541006211
465,28.530141715737997
600,0.0
601,0.0
602,26.73071734047297
666,14.999999999999986
667,29.99999999999997
668,25.723262598852468
732,14.999999999999986
733,26.637047350406622
734,26.359981983950014
798,14.999999999999986
799,26.432135343551607
800,26.444827770849805
864,14.999999999999986
865,29.444321155548074
866,26.691816517735834
930,14.999999999999986
931,29.99999999999997
2,1, 6, 1, 0,12,45.00,60.00,Wednesday
7,31.0
18,8.8
19,4.0
20,8.8
21,4.0
22,16.0
1079,6.552779766333757
1080,9.06597940425523
1081,6.851387172375283
1082,6.49691729381621
1083,5.998436863077686
465,28.10963879634124
600,0.0
601,0.0
602,26.99619092223607
666,15.000000000000021
667,27.028393268585244
668,23.050869979335822
732,15.000000000000021
733,21.637047350406682
734,23.79213873425535
798,17.409305095672636
799,21.43213534355167
800,26.87620688062027
864,15.000000000000021
865,26.979676008224526
866,27.099638855751138
930,15.000000000000021
931,27.191090106964154
2,1, 6, 1, 0,13, 0.00,15.00,Wednesday
7,30.775
18,4.4
19,2.0
20,4.4
21,2.0
22,8.0
1079,6.584697280893849
1080,9.35057356279097
1081,6.450082111010374
1082,5.4636307401195126
1083,6.102673741628607
465,27.243055352699027
600,0.0
601,0.0
602,24.084873671522555
666,17.922803878784176
667,22.67655801773071
668,23.59006887046532
732,17.711174011230465
733,23.59173637628555
734,24.52786456750657
798,15.0
799,24.563188791275024
800,24.71419113365136
864,15.0
865,24.416442632675167
866,24.781831356134564
930,15.0
931,22.57655477523804
2,1, 6, 1, 0,13,15.00,30.00,Wednesday
7,30.55
18,4.4
19,2.0
20,4.4
21,2.0
22,8.0
1079,7.478425870244195
1080,5.393625636536399
1081,5.004379668141169
1082,5.034289981191577
1083,5.198755532993786
465,27.89994552082933
600,0.0
601,0.0
602,24.266688330224866
666,15.0
667,24.267993450164795
668,25.372945271693585
732,15.0
733,28.591736376285553
734,25.908047762099237
798,15.0
799,29.563188791275024
800,26.12865075101111
864,15.0
865,28.237870454788208
866,25.897568875591762
930,15.0
931,27.576554775238037
2,1, 6, 1, 0,13,30.00,45.00,Wednesday
7,30.325000000000003
18,4.4
19,2.0
20,4.4
21,2.0
22,8.0
1079,5.061259227036004
1080,7.947477187904454
1081,5.166556211232958
1082,5.15729110462253
1083,5.000328267153506
465,28.265941219070424
600,0.0
601,0.0
602,25.74310730691093
666,15.0
667,29.26799345016479
668,23.757382572803582
732,15.0
733,23.591736376285553
734,25.27235927500944
798,15.0
799,25.268026113510132
800,25.198889195392386
864,15.0
865,25.209975957870483
866,26.102659551287633
930,15.0
931,26.133368492126458
2,1, 6, 1, 0,13,45.00,60.00,Wednesday
7,30.1
18,4.4
19,2.0
20,4.4
21,2.0
22,8.0
1079,6.621646220710986
1080,5.8994605386773316
1081,5.259934772268096
1082,5.272538932233772
1083,5.333922773580895
465,28.65840094319018
600,0.0
601,0.0
602,24.335145379752444
666,15.0
667,24.267993450164795
668,24.95655691420494
732,15.0
733,25.09236854314804
734,26.516874971191676
798,15.0
799,30.0
800,26.477329947105794
864,15.0
865,29.44103693962097
866,26.866945503883272
930,15.0
931,30.0
2,1, 6, 1, 0,14, 0.00,15.00,Wednesday
7,29.625000000000004
18,8.8
19,4.0
20,8.8
21,4.0
22,16.0
1079,5.012711905761975
1080,5.226242392824815
1081,5.006892679492594
1082,5.649126071108142
1083,5.009550684614041
465,28.889006797457352
600,0.0
601,0.0
602,26.135624639884654
666,15.0
667,29.267993450164795
668,26.496063512169815
732,15.0
733,29.967671811580658
734,25.55384918268254
798,15.0
799,25.513819694519043
800,24.627091412665962
864,15.0
865,24.44103693962097
866,26.110194552894697
930,15.0
931,26.07238483428955
2,1, 6, 1, 0,14,15.00,30.00,Wednesday
7,29.15
18,8.8
19,4.0
20,8.8
21,4.0
22,16.0
1079,7.924989456405612
1080,6.988564791491342
1081,5.917893738858268
1082,5.106558576215335
1083,7.3884601866332815
465,28.72882675269513
600,0.0
601,0.0
602,27.7866401603442
666,20.0
667,30.0
668,27.34302338052061
732,15.0