Program Version,EnergyPlus, Version 23.2.0-7636e6b3e9, YMD=2025.06.03 20:58
1,5,Environment Title[],Latitude[deg],Longitude[deg],Time Zone[],Elevation[m]
2,8,Day of Simulation[],Month[],Day of Month[],DST Indicator[1=yes 0=no],Hour[],StartMinute[],EndMinute[],DayType
3,5,Cumulative Day of Simulation[],Month[],Day of Month[],DST Indicator[1=yes 0=no],DayType  ! When Daily Meters Requested
4,2,Cumulative Days of Simulation[],Month[]  ! When Monthly Meters Requested
5,1,Cumulative Days of Simulation[] ! When Run Period Meters Requested
6,1,Calendar Year of Simulation[] ! When Annual Meters Requested
24,1,Electricity:Facility [J] !TimeStep
36,1,Electricity:Building [J] !TimeStep
72,1,InteriorLights:Electricity [J] !TimeStep
1207,1,Electricity:HVAC [J] !TimeStep
1270,1,Electricity:Plant [J] !TimeStep
29,11,Electricity:Facility [J] !RunPeriod [Value,Min,Month,Day,Hour,Minute,Max,Month,Day,Hour,Minute]
41,11,Electricity:Building [J] !RunPeriod [Value,Min,Month,Day,Hour,Minute,Max,Month,Day,Hour,Minute]
77,11,InteriorLights:Electricity [J] !RunPeriod [Value,Min,Month,Day,Hour,Minute,Max,Month,Day,Hour,Minute]
1212,11,Electricity:HVAC [J] !RunPeriod [Value,Min,Month,Day,Hour,Minute,Max,Month,Day,Hour,Minute]
1275,11,Electricity:Plant [J] !RunPeriod [Value,Min,Month,Day,Hour,Minute,Max,Month,Day,Hour,Minute]
End of Data Dictionary
1,RUN PERIOD 2,  36.60, 117.05,   8.00, 170.30
2,1, 6, 1, 0, 1, 0.00,15.00,Wednesday
24,4708473.766012155
36,427500.0
72,337500.0
1207,589606.758008379
1270,3691367.0080037764
2,1, 6, 1, 0, 1,15.00,30.00,Wednesday
24,5068812.159477059
36,427500.0
72,337500.0
1207,612346.5123329519
1270,4028965.6471441067
2,1, 6, 1, 0, 1,30.00,45.00,Wednesday
24,4701146.372741097
36,427500.0
72,337500.0
1207,593312.7006520249
1270,3680333.6720890724
2,1, 6, 1, 0, 1,45.00,60.00,Wednesday
24,4692610.238091372
36,427500.0
72,337500.0
1207,589606.758008379
1270,3675503.480082994
2,1, 6, 1, 0, 2, 0.00,15.00,Wednesday
24,4693331.225866456
36,427500.0
72,337500.0
1207,589784.3459963475
1270,3676046.879870109
2,1, 6, 1, 0, 2,15.00,30.00,Wednesday
24,4696234.84925815
36,427500.0
72,337500.0
1207,592160.4901557441
1270,3676574.3591024056
2,1, 6, 1, 0, 2,30.00,45.00,Wednesday
24,4694191.584519743
36,427500.0
72,337500.0
1207,589606.758008379
1270,3677084.826511364
2,1, 6, 1, 0, 2,45.00,60.00,Wednesday
24,4984523.4600437125
36,427500.0
72,337500.0
1207,607322.2028907174
1270,3949701.257152995
2,1, 6, 1, 0, 3, 0.00,15.00,Wednesday
24,4844299.10738176
36,427500.0
72,337500.0
1207,604872.6865779777
1270,3811926.4208037825
2,1, 6, 1, 0, 3,15.00,30.00,Wednesday
24,4695194.071579635
36,427500.0
72,337500.0
1207,589606.758008379
1270,3678087.313571257
2,1, 6, 1, 0, 3,30.00,45.00,Wednesday
24,5928981.925721701
36,427500.0
72,337500.0
1207,653785.074101557
1270,4847696.851620144
2,1, 6, 1, 0, 3,45.00,60.00,Wednesday
24,4892586.141269535
36,427500.0
72,337500.0
1207,597941.6557309232
1270,3867144.485538612
2,1, 6, 1, 0, 4, 0.00,15.00,Wednesday
24,4695133.449021924
36,427500.0
72,337500.0
1207,589606.758008379
1270,3678026.691013546
2,1, 6, 1, 0, 4,15.00,30.00,Wednesday
24,4694646.204719911
36,427500.0
72,337500.0
1207,589606.758008379
1270,3677539.4467115323
2,1, 6, 1, 0, 4,30.00,45.00,Wednesday
24,4694154.991248866
36,427500.0
72,337500.0
1207,589606.758008379
1270,3677048.2332404866
2,1, 6, 1, 0, 4,45.00,60.00,Wednesday
24,4693659.806504118
36,427500.0
72,337500.0
1207,589606.758008379
1270,3676553.0484957392
2,1, 6, 1, 0, 5, 0.00,15.00,Wednesday
24,4692940.423711312
36,427500.0
72,337500.0
1207,589606.758008379
1270,3675833.665702933
2,1, 6, 1, 0, 5,15.00,30.00,Wednesday
24,4695238.96020511
36,427500.0
72,337500.0
1207,592615.7767414013
1270,3675123.183463709
2,1, 6, 1, 0, 5,30.00,45.00,Wednesday
24,4691528.173137314
36,427500.0
72,337500.0
1207,589606.758008379
1270,3674421.4151289347
2,1, 6, 1, 0, 5,45.00,60.00,Wednesday
24,4690834.956489093
36,427500.0
72,337500.0
1207,589606.758008379
1270,3673728.1984807136
2,1, 6, 1, 0, 6, 0.00,15.00,Wednesday
24,5657051.626713079
36,427500.0
72,337500.0
1207,653785.074101557
1270,4575766.552611523
2,1, 6, 1, 0, 6,15.00,30.00,Wednesday
24,4691870.937751014
36,427500.0
72,337500.0
1207,589606.758008379
1270,3674764.1797426357
2,1, 6, 1, 0, 6,30.00,45.00,Wednesday
24,4688283.851180673
36,427500.0
72,337500.0
1207,589606.758008379
1270,3671177.093172294
2,1, 6, 1, 0, 6,45.00,60.00,Wednesday
24,4687464.126085793
36,427500.0
72,337500.0
1207,589606.758008379
1270,3670357.368077413
2,1, 6, 1, 0, 7, 0.00,15.00,Wednesday
24,4687632.232722467
36,427500.0
72,337500.0
1207,589606.758008379
1270,3670525.4747140887
2,1, 6, 1, 0, 7,15.00,30.00,Wednesday
24,4687800.984636138
36,427500.0
72,337500.0
1207,589606.758008379
1270,3670694.22662776
2,1, 6, 1, 0, 7,30.00,45.00,Wednesday
24,4687970.374514963
36,427500.0
72,337500.0
1207,589606.758008379
1270,3670863.6165065845
2,1, 6, 1, 0, 7,45.00,60.00,Wednesday
24,4688140.429642734
36,427500.0
72,337500.0
1207,589606.758008379
1270,3671033.671634355
2,1, 6, 1, 0, 8, 0.00,15.00,Wednesday
24,4688988.353931832
36,427500.0
72,337500.0
1207,589606.758008379
1270,3671881.595923454
2,1, 6, 1, 0, 8,15.00,30.00,Wednesday
24,4689857.639542158
36,427500.0
72,337500.0
1207,589606.758008379
1270,3672750.8815337797
2,1, 6, 1, 0, 8,30.00,45.00,Wednesday
24,4690740.601015273
36,427500.0
72,337500.0
1207,589606.758008379
1270,3673633.8430068945
2,1, 6, 1, 0, 8,45.00,60.00,Wednesday
24,4691641.977912662
36,427500.0
72,337500.0
1207,589606.758008379
1270,3674535.2199042826
2,1, 6, 1, 0, 9, 0.00,15.00,Wednesday
24,12141210.3010596
36,7875000.0
72,6075000.0
1207,589606.758008379
1270,3676603.5430512195
2,1, 6, 1, 0, 9,15.00,30.00,Wednesday
24,12143377.763426896
36,7875000.0
72,6075000.0
1207,589606.758008379
1270,3678771.0054185153
2,1, 6, 1, 0, 9,30.00,45.00,Wednesday
24,12149099.863362908
36,7875000.0
72,6075000.0
1207,593055.3590322406
1270,3681044.504330668
2,1, 6, 1, 0, 9,45.00,60.00,Wednesday
24,12148038.790120333
36,7875000.0
72,6075000.0
1207,589606.758008379
1270,3683432.032111952
2,1, 6, 1, 0,10, 0.00,15.00,Wednesday
24,15327105.848820204
36,10462500.0
72,6412500.0
1207,621549.8040920438
1270,4243056.04472816
2,1, 6, 1, 0,10,15.00,30.00,Wednesday
24,16717223.686012428
36,10462500.0
72,6412500.0
1207,669009.9039818316
1270,5585713.7820305955
2,1, 6, 1, 0,10,30.00,45.00,Wednesday
24,17216094.915852867
36,10462500.0
72,6412500.0
1207,674820.5764859173
1270,6078774.339366947
2,1, 6, 1, 0,10,45.00,60.00,Wednesday
24,15446066.624797055
36,10462500.0
72,6412500.0
1207,608432.2362338463
1270,4375134.388563207
2,1, 6, 1, 0,11, 0.00,15.00,Wednesday
24,19113024.951448865
36,10800000.0
72,6750000.0
1207,798931.7820626425
1270,7514093.169386219
2,1, 6, 1, 0,11,15.00,30.00,Wednesday
24,16727375.416123783
36,10800000.0
72,6750000.0
1207,618471.3038342674
1270,5308904.112289515
2,1, 6, 1, 0,11,30.00,45.00,Wednesday
24,17617638.704830714
36,10800000.0
72,6750000.0
1207,640953.3724581362
1270,6176685.332372578
2,1, 6, 1, 0,11,45.00,60.00,Wednesday
24,18412518.17589481
36,10800000.0
72,6750000.0
1207,682079.3813359109
1270,6930438.7945588995
2,1, 6, 1, 0,12, 0.00,15.00,Wednesday
24,17154771.89374718
36,10462500.0
72,6412500.0
1207,627336.0561865647
1270,6064935.837560616
2,1, 6, 1, 0,12,15.00,30.00,Wednesday
24,19252813.87483278
36,10462500.0
72,6412500.0
1207,782415.5499130618
1270,8007898.324919714
2,1, 6, 1, 0,12,30.00,45.00,Wednesday
24,15417989.892086094
36,10462500.0
72,6412500.0
1207,596811.5851131247
1270,4358678.306972968
2,1, 6, 1, 0,12,45.00,60.00,Wednesday
24,19338135.483584136
36,10462500.0
72,6412500.0
1207,703360.2251365593
1270,8172275.258447574
2,1, 6, 1, 0,13, 0.00,15.00,Wednesday
24,19447683.74563963
36,9450000.0
72,5400000.0
1207,1096867.2804176337
1270,8900816.465221994
2,1, 6, 1, 0,13,15.00,30.00,Wednesday
24,15610247.10118846
36,9450000.0
72,5400000.0
1207,603481.6125074925
1270,5556765.488680967
2,1, 6, 1, 0,13,30.00,45.00,Wednesday
24,16042547.182108384
36,9450000.0
72,5400000.0
1207,624633.4280253046
1270,5967913.754083077
2,1, 6, 1, 0,13,45.00,60.00,Wednesday
24,15243985.00081285
36,9450000.0
72,5400000.0
1207,609326.1922697101
1270,5184658.808543138
2,1, 6, 1, 0,14, 0.00,15.00,Wednesday
24,16778281.3695987
36,10125000.0
72,6075000.0
1207,649926.6186910814
1270,6003354.750907621
2,1, 6, 1, 0,14,15.00,30.00,Wednesday
24,17591054.427749038
36,10125000.0
72,6075000.0
1207,658057.4156014386
1270,6807997.012147593
2,1, 6, 1, 0,14,30.00,45.00,Wednesday
24,15427967.67658779
36,10125000.0
72,6075000.0
1207,609504.281166459
1270,4693463.395421331
2,1, 6, 1, 0,14,45.00,60.00,Wednesday
24,19518536.963932946
36,10125000.0
72,6075000.0
1207,898539.9339102459
1270,8494997.030022696
2,1, 6, 1, 0,15, 0.00,15.00,Wednesday
24,20186396.928506907
36,10350000.0
72,6750000.0
1207,998900.5743865215
1270,8837496.354120381
2,1, 6, 1, 0,15,15.00,30.00,Wednesday
24,15806897.968639938
36,10350000.0
72,6750000.0
1207,608006.8180050768
1270,4848891.150634861
2,1, 6, 1, 0,15,30.00,45.00,Wednesday
24,15813242.964360062
36,10350000.0
72,6750000.0
1207,619870.7161688446
1270,4843372.248191218
2,1, 6, 1, 0,15,45.00,60.00,Wednesday
24,16958944.256905563
36,10350000.0
72,6750000.0
1207,669531.1549414508
1270,5939413.101964111
2,1, 6, 1, 0,16, 0.00,15.00,Wednesday
24,15900980.988533158
36,9900000.0
72,6750000.0
1207,647254.1330488273
1270,5353726.855484331
2,1, 6, 1, 0,16,15.00,30.00,Wednesday
24,16377033.206929874
36,9900000.0
72,6750000.0
1207,678416.8641889005
1270,5798616.342740972
2,1, 6, 1, 0,16,30.00,45.00,Wednesday
24,15719384.750747696
36,9900000.0
72,6750000.0
1207,651100.1927087156
1270,5168284.55803898
2,1, 6, 1, 0,16,45.00,60.00,Wednesday
24,14192615.986720394
36,9900000.0
72,6750000.0
1207,594416.3021133597
1270,3698199.684607035
2,1, 6, 1, 0,17, 0.00,15.00,Wednesday
24,14833210.037355294
36,9000000.0
72,6750000.0
1207,681089.9855996496
1270,5152120.051755643
2,1, 6, 1, 0,17,15.00,30.00,Wednesday
24,13502136.431697376
36,9000000.0
72,6750000.0
1207,604390.493979538
1270,3897745.9377178373
2,1, 6, 1, 0,17,30.00,45.00,Wednesday
24,14764635.014956234
36,9000000.0
72,6750000.0
1207,672401.4435753017
1270,5092233.57138093
2,1, 6, 1, 0,17,45.00,60.00,Wednesday
24,14663449.83543925
36,9000000.0
72,6750000.0
1207,655761.1811370548
1270,5007688.654302194
2,1, 6, 1, 0,18, 0.00,15.00,Wednesday
24,14018021.250537416
36,9000000.0
72,6750000.0
1207,624705.1387826104
1270,4393316.111754806
2,1, 6, 1, 0,18,15.00,30.00,Wednesday
24,13306157.91325049
36,9000000.0
72,6750000.0
1207,594613.9617094884
1270,3711543.9515410005
2,1, 6, 1, 0,18,30.00,45.00,Wednesday
24,14040430.64180055
36,9000000.0
72,6750000.0
1207,644809.2113293842
1270,4395621.430471166
2,1, 6, 1, 0,18,45.00,60.00,Wednesday
24,13274851.006529171
36,9000000.0
72,6750000.0
1207,594328.6269050542
1270,3680522.3796241167
2,1, 6, 1, 0,19, 0.00,15.00,Wednesday
24,10161221.177015351
36,5400000.0
72,4050000.0
1207,617464.257382518
1270,4143756.9196328316
2,1, 6, 1, 0,19,15.00,30.00,Wednesday
24,9670701.097010482
36,5400000.0
72,4050000.0
1207,589683.9597628969
1270,3681017.137247583
2,1, 6, 1, 0,19,30.00,45.00,Wednesday
24,9671438.274866948
36,5400000.0
72,4050000.0
1207,589606.758008379
1270,3681831.516858568
2,1, 6, 1, 0,19,45.00,60.00,Wednesday
24,9672267.339813087
36,5400000.0
72,4050000.0
1207,589606.758008379
1270,3682660.581804707
2,1, 6, 1, 0,20, 0.00,15.00,Wednesday
24,8323596.602861433
36,4050000.0
72,2700000.0
1207,589606.758008379
1270,3683989.8448530543
2,1, 6, 1, 0,20,15.00,30.00,Wednesday
24,8324962.875535234
36,4050000.0
72,2700000.0
1207,589606.758008379
1270,3685356.117526856
2,1, 6, 1, 0,20,30.00,45.00,Wednesday
24,8326367.550633351
36,4050000.0
72,2700000.0
1207,589606.758008379
1270,3686760.7926249723
2,1, 6, 1, 0,20,45.00,60.00,Wednesday
24,8327812.161469946
36,4050000.0
72,2700000.0
1207,589606.758008379
1270,3688205.4034615667
2,1, 6, 1, 0,21, 0.00,15.00,Wednesday
24,8329167.229185125
36,4050000.0
72,2700000.0
1207,589606.758008379
1270,3689560.471176746
2,1, 6, 1, 0,21,15.00,30.00,Wednesday
24,8330557.042900566
36,4050000.0
72,2700000.0
1207,589606.758008379
1270,3690950.284892187
2,1, 6, 1, 0,21,30.00,45.00,Wednesday
24,8331982.931858071
36,4050000.0
72,2700000.0
1207,589606.758008379
1270,3692376.173849692
2,1, 6, 1, 0,21,45.00,60.00,Wednesday
24,8333446.194139929
36,4050000.0
72,2700000.0
1207,589606.758008379
1270,3693839.4361315495
2,1, 6, 1, 0,22, 0.00,15.00,Wednesday
24,4711842.023388513
36,427500.0
72,337500.0
1207,589606.758008379
1270,3694735.265380134
2,1, 6, 1, 0,22,15.00,30.00,Wednesday
24,4712749.820174226
36,427500.0
72,337500.0
1207,589606.758008379
1270,3695643.062165847
2,1, 6, 1, 0,22,30.00,45.00,Wednesday
24,4713669.92665066
36,427500.0
72,337500.0
1207,589606.758008379
1270,3696563.1686422816
2,1, 6, 1, 0,22,45.00,60.00,Wednesday
24,4714602.506937654
36,427500.0
72,337500.0
1207,589606.758008379
1270,3697495.7489292757
2,1, 6, 1, 0,23, 0.00,15.00,Wednesday
24,4714903.707399464
36,427500.0
72,337500.0
1207,589606.758008379
1270,3697796.949391086
2,1, 6, 1, 0,23,15.00,30.00,Wednesday
24,4715201.601920523
36,427500.0
72,337500.0
1207,589606.758008379
1270,3698094.8439121437
2,1, 6, 1, 0,23,30.00,45.00,Wednesday
24,4715490.994442209
36,427500.0
72,337500.0
1207,589606.758008379
1270,3698384.2364338296
2,1, 6, 1, 0,23,45.00,60.00,Wednesday
24,4715783.701973495
36,427500.0
72,337500.0
1207,589606.758008379
1270,3698676.943965116
2,1, 6, 1, 0,24, 0.00,15.00,Wednesday
24,4715557.880283381
36,427500.0
72,337500.0
1207,589606.758008379
1270,3698451.122275002
2,1, 6, 1, 0,24,15.00,30.00,Wednesday
24,4715324.958344448
36,427500.0
72,337500.0
1207,589606.758008379
1270,3698218.2003360693
2,1, 6, 1, 0,24,30.00,45.00,Wednesday
24,4715074.5096024005
36,427500.0
72,337500.0
1207,589606.758008379
1270,3697967.7515940224
2,1, 6, 1, 0,24,45.00,60.00,Wednesday
24,4714811.783402315
36,427500.0
72,337500.0
1207,589606.758008379
1270,3697705.0253939372
2,2, 6, 2, 0, 1, 0.00,15.00,Thursday
24,4713478.290793729
36,427500.0
72,337500.0
1207,589606.758008379
1270,3696371.53278535
2,2, 6, 2, 0, 1,15.00,30.00,Thursday
24,5230950.726932762
36,427500.0
72,337500.0
1207,611798.7154962181
1270,4191652.0114365444
2,2, 6, 2, 0, 1,30.00,45.00,Thursday
24,5499404.16587605
36,427500.0
72,337500.0
1207,614398.3573968599
1270,4457505.80847919
2,2, 6, 2, 0, 1,45.00,60.00,Thursday
24,5957745.016891224
36,427500.0
72,337500.0
1207,628371.0734165388
1270,4901873.943474686
2,2, 6, 2, 0, 2, 0.00,15.00,Thursday
24,4711403.961527019
36,427500.0
72,337500.0
1207,589606.758008379
1270,3694297.2035186407
2,2, 6, 2, 0, 2,15.00,30.00,Thursday
24,4705939.525065625
36,427500.0
72,337500.0
1207,589606.758008379
1270,3688832.767057246
2,2, 6, 2, 0, 2,30.00,45.00,Thursday
24,4704182.654619508
36,427500.0
72,337500.0
1207,589606.758008379
1270,3687075.8966111303
2,2, 6, 2, 0, 2,45.00,60.00,Thursday
24,4702473.089285412
36,427500.0
72,337500.0
1207,589606.758008379
1270,3685366.331277033
2,2, 6, 2, 0, 3, 0.00,15.00,Thursday
24,4700301.2480388405
36,427500.0
72,337500.0
1207,589606.758008379
1270,3683194.4900304615
2,2, 6, 2, 0, 3,15.00,30.00,Thursday
24,4698208.436381561
36,427500.0
72,337500.0
1207,589606.758008379
1270,3681101.6783731827
2,2, 6, 2, 0, 3,30.00,45.00,Thursday
24,4696190.566812394
36,427500.0
72,337500.0
1207,589606.758008379
1270,3679083.808804016
2,2, 6, 2, 0, 3,45.00,60.00,Thursday
24,4694243.92003013
36,427500.0
72,337500.0
1207,589606.758008379
1270,3677137.162021751
2,2, 6, 2, 0, 4, 0.00,15.00,Thursday
24,4691886.732228495
36,427500.0
72,337500.0
1207,589606.758008379
1270,3674779.974220117
2,2, 6, 2, 0, 4,15.00,30.00,Thursday
24,9721265.483674398
36,427500.0
72,337500.0
1207,630850.4075152071
1270,8662915.07615919
2,2, 6, 2, 0, 4,30.00,45.00,Thursday
24,4688962.055309383
36,427500.0
72,337500.0
1207,589606.758008379
1270,3671855.297301005
2,2, 6, 2, 0, 4,45.00,60.00,Thursday
24,4685441.916421984
36,427500.0
72,337500.0
1207,589606.758008379
1270,3668335.1584136058
2,2, 6, 2, 0, 5, 0.00,15.00,Thursday
24,4683627.8312235745
36,427500.0
72,337500.0
1207,589606.758008379
1270,3666521.073215195
2,2, 6, 2, 0, 5,15.00,30.00,Thursday
24,4681889.065545693
36,427500.0
72,337500.0
1207,589606.758008379
1270,3664782.307537314
2,2, 6, 2, 0, 5,30.00,45.00,Thursday
24,4680221.202242469
36,427500.0
72,337500.0
1207,589606.758008379
1270,3663114.4442340913
2,2, 6, 2, 0, 5,45.00,60.00,Thursday
24,4678620.056598779
36,427500.0
72,337500.0
1207,589606.758008379
1270,3661513.2985904007
2,2, 6, 2, 0, 6, 0.00,15.00,Thursday
24,4677997.428855244
36,427500.0
72,337500.0
1207,589606.758008379
1270,3660890.670846866
2,2, 6, 2, 0, 6,15.00,30.00,Thursday
24,4677384.640974593
36,427500.0
72,337500.0
1207,589606.758008379
1270,3660277.8829662143
2,2, 6, 2, 0, 6,30.00,45.00,Thursday
24,4676781.447992838
36,427500.0
72,337500.0
1207,589606.758008379
1270,3659674.689984459
2,2, 6, 2, 0, 6,45.00,60.00,Thursday
24,4681296.814749605
36,427500.0
72,337500.0
1207,594715.8815381931
1270,3659080.9332114127
2,2, 6, 2, 0, 7, 0.00,15.00,Thursday
24,4676586.586204288
36,427500.0
72,337500.0
1207,589606.758008379
1270,3659479.8281959086
2,2, 6, 2, 0, 7,15.00,30.00,Thursday
24,4676986.568488358
36,427500.0
72,337500.0
1207,589606.758008379
1270,3659879.8104799795
2,2, 6, 2, 0, 7,30.00,45.00,Thursday
24,4677387.675040368
36,427500.0
72,337500.0
1207,589606.758008379
1270,3660280.917031989
2,2, 6, 2, 0, 7,45.00,60.00,Thursday
24,4677789.853591302
36,427500.0
72,337500.0
1207,589606.758008379
1270,3660683.0955829234
2,2, 6, 2, 0, 8, 0.00,15.00,Thursday
24,4679444.37693698
36,427500.0
72,337500.0
1207,589606.758008379
1270,3662337.6189286015
2,2, 6, 2, 0, 8,15.00,30.00,Thursday
24,4681163.21998192
36,427500.0
72,337500.0
1207,589606.758008379
1270,3664056.461973541
2,2, 6, 2, 0, 8,30.00,45.00,Thursday
24,5369121.090525595
36,427500.0
72,337500.0
1207,589606.758008379
1270,4352014.332517216
2,2, 6, 2, 0, 8,45.00,60.00,Thursday
24,4684808.439502941
36,427500.0
72,337500.0
1207,589606.758008379
1270,3667701.6814945624
2,2, 6, 2, 0, 9, 0.00,15.00,Thursday
24,12134145.017787723
36,7875000.0
72,6075000.0
1207,589606.758008379
1270,3669538.2597793406
2,2, 6, 2, 0, 9,15.00,30.00,Thursday
24,12136042.655081252
36,7875000.0
72,6075000.0
1207,589606.758008379
1270,3671435.8970728708
2,2, 6, 2, 0, 9,30.00,45.00,Thursday
24,12137994.668818187
36,7875000.0
72,6075000.0
1207,589606.758008379
1270,3673387.910809806
2,2, 6, 2, 0, 9,45.00,60.00,Thursday
24,12142518.510115962
36,7875000.0
72,6075000.0
1207,592117.9735826117
1270,3675400.536533351
2,2, 6, 2, 0,10, 0.00,15.00,Thursday
24,14728849.789080312
36,10462500.0
72,6412500.0
1207,589606.758008379
1270,3676743.0310719316
2,2, 6, 2, 0,10,15.00,30.00,Thursday
24,14738668.5079304
36,10462500.0
72,6412500.0
1207,598078.0901078116
1270,3678090.417822588
2,2, 6, 2, 0,10,30.00,45.00,Thursday
24,17640116.412257724
36,10462500.0
72,6412500.0
1207,862726.9719132805
1270,6314889.44034444
2,2, 6, 2, 0,10,45.00,60.00,Thursday
24,14845809.494903361
36,10462500.0
72,6412500.0
1207,596449.6197079128
1270,3786859.8751954488
2,2, 6, 2, 0,11, 0.00,15.00,Thursday
24,15954466.882074695
36,10800000.0
72,6750000.0
1207,634935.4914178445
1270,4519531.390656849
2,2, 6, 2, 0,11,15.00,30.00,Thursday
24,17970884.614523295
36,10800000.0
72,6750000.0
1207,787034.2192220149
1270,6383850.395301277
2,2, 6, 2, 0,11,30.00,45.00,Thursday
24,15554527.08418707
36,10800000.0
72,6750000.0
1207,612232.4029306185
1270,4142294.681256452
2,2, 6, 2, 0,11,45.00,60.00,Thursday
24,15869104.86744162
36,10800000.0
72,6750000.0
1207,627631.00800302
1270,4441473.859438599
2,2, 6, 2, 0,12, 0.00,15.00,Thursday
24,15103053.768614061
36,10462500.0
72,6412500.0
1207,611911.8346160987
1270,4028641.933997962
2,2, 6, 2, 0,12,15.00,30.00,Thursday
24,18230852.25271699
36,10462500.0
72,6412500.0
1207,841951.0407595237
1270,6926401.211957461
2,2, 6, 2, 0,12,30.00,45.00,Thursday
24,15684803.74651385
36,10462500.0
72,6412500.0
1207,621869.194032247
1270,4600434.552481602
2,2, 6, 2, 0,12,45.00,60.00,Thursday
24,17171177.15281421
36,10462500.0
72,6412500.0
1207,717244.7700440085
1270,5991432.3827702
2,2, 6, 2, 0,13, 0.00,15.00,Thursday
24,17407255.195206717
36,9450000.0
72,5400000.0
1207,854286.3204741171
1270,7102968.874732597
2,2, 6, 2, 0,13,15.00,30.00,Thursday
24,16493250.840273697
36,9450000.0
72,5400000.0
1207,723517.5106921664
1270,6319733.32958153
2,2, 6, 2, 0,13,30.00,45.00,Thursday
24,17870234.884353727
36,9450000.0
72,5400000.0
1207,959867.1683927686
1270,7460367.715960958
2,2, 6, 2, 0,13,45.00,60.00,Thursday
24,14342519.462122267
36,9450000.0
72,5400000.0
1207,611259.9174346641
1270,4281259.544687602
2,2, 6, 2, 0,14, 0.00,15.00,Thursday
24,14605468.411402214
36,10125000.0
72,6075000.0
1207,602846.5391352501
1270,3877621.8722669645
2,2, 6, 2, 0,14,15.00,30.00,Thursday
24,17267049.609238286
36,10125000.0
72,6075000.0
1207,790374.4383557604
1270,6351675.170882526
2,2, 6, 2, 0,14,30.00,45.00,Thursday
24,17267636.60899509
36,10125000.0
72,6075000.0
1207,740735.2299935737
1270,6401901.379001517
2,2, 6, 2, 0,14,45.00,60.00,Thursday
24,16555185.448278578
36,10125000.0
72,6075000.0
1207,683433.6596868471
1270,5746751.7885917295
2,2, 6, 2, 0,15, 0.00,15.00,Thursday
24,17680423.945888475
36,10350000.0
72,6750000.0
1207,754824.2211938475
1270,6575599.724694622
2,2, 6, 2, 0,15,15.00,30.00,Thursday
24,15831981.327797074
36,10350000.0
72,6750000.0
1207,628298.8664064325
1270,4853682.461390641
2,2, 6, 2, 0,15,30.00,45.00,Thursday
24,15644444.62911963
36,10350000.0
72,6750000.0
1207,620606.8717627977
1270,4673837.757356832
2,2, 6, 2, 0,15,45.00,60.00,Thursday
24,18293818.940902885
36,10350000.0
72,6750000.0
1207,812232.1791112656
1270,7131586.761791616
2,2, 6, 2, 0,16, 0.00,15.00,Thursday
24,17282280.881566893
36,9900000.0
72,6750000.0
1207,707795.6583701401
1270,6674485.223196751
2,2, 6, 2, 0,16,15.00,30.00,Thursday
24,16543260.47732694
36,9900000.0
72,6750000.0
1207,660600.2314423441
1270,5982660.245884596
2,2, 6, 2, 0,16,30.00,45.00,Thursday
24,15801974.786828069
36,9900000.0
72,6750000.0
1207,633165.6288694734
1270,5268809.157958596
2,2, 6, 2, 0,16,45.00,60.00,Thursday
24,17045517.93642604
36,9900000.0
72,6750000.0
1207,687225.1263138079
1270,6458292.8101122305
2,2, 6, 2, 0,17, 0.00,15.00,Thursday
24,16152248.503505541
36,9000000.0
72,6750000.0
1207,697845.897370515
1270,6454402.606135025
2,2, 6, 2, 0,17,15.00,30.00,Thursday
24,15762025.74814417
36,9000000.0
72,6750000.0
1207,668402.5548068185
1270,6093623.193337351
2,2, 6, 2, 0,17,30.00,45.00,Thursday
24,16325422.909657827
36,9000000.0
72,6750000.0
1207,720579.847318744
1270,6604843.062339083
2,2, 6, 2, 0,17,45.00,60.00,Thursday
24,13451503.030664671
36,9000000.0
72,6750000.0
1207,596108.2292672235
1270,3855394.8013974456
2,2, 6, 2, 0,18, 0.00,15.00,Thursday
24,16028503.54945519
36,9000000.0
72,6750000.0
1207,694087.8397006285
1270,6334415.709754563
2,2, 6, 2, 0,18,15.00,30.00,Thursday
24,14466117.06011564
36,9000000.0
72,6750000.0
1207,624933.9268191787
1270,4841183.13329646
2,2, 6, 2, 0,18,30.00,45.00,Thursday
24,15835435.382486742
36,9000000.0
72,6750000.0
1207,691389.0887193743
1270,6144046.2937673675
2,2, 6, 2, 0,18,45.00,60.00,Thursday
24,14931631.778558616
36,9000000.0
72,6750000.0
1207,650494.5013236278
1270,5281137.277234987
2,2, 6, 2, 0,19, 0.00,15.00,Thursday
24,10654923.098875627
36,5400000.0
72,4050000.0
1207,625016.6144322265
1270,4629906.484443399
2,2, 6, 2, 0,19,15.00,30.00,Thursday
24,9679519.150658658
36,5400000.0
72,4050000.0
1207,589606.758008379
1270,3689912.392650278
2,2, 6, 2, 0,19,30.00,45.00,Thursday
24,15399930.283033617
36,5400000.0
72,4050000.0
1207,630850.4075152071
1270,9369079.87551841
2,2, 6, 2, 0,19,45.00,60.00,Thursday
24,9678971.12665988
36,5400000.0
72,4050000.0
1207,589606.758008379
1270,3689364.3686514976
2,2, 6, 2, 0,20, 0.00,15.00,Thursday
24,8323924.973862624
36,4050000.0
72,2700000.0
1207,589606.758008379
1270,3684318.215854245
2,2, 6, 2, 0,20,15.00,30.00,Thursday
24,8322206.465363088
36,4050000.0
72,2700000.0
1207,589606.758008379
1270,3682599.707354709
2,2, 6, 2, 0,20,30.00,45.00,Thursday
24,8320519.3970257575
36,4050000.0
72,2700000.0
1207,589606.758008379
1270,3680912.6390173784
2,2, 6, 2, 0,20,45.00,60.00,Thursday
24,8318863.835651448
36,4050000.0
72,2700000.0
1207,589606.758008379
1270,3679257.077643069
2,2, 6, 2, 0,21, 0.00,15.00,Thursday
24,8318218.743387107
36,4050000.0
72,2700000.0
1207,589606.758008379
1270,3678611.985378728
2,2, 6, 2, 0,21,15.00,30.00,Thursday
24,8317555.4666432645
36,4050000.0
72,2700000.0
1207,589606.758008379
1270,3677948.7086348855
2,2, 6, 2, 0,21,30.00,45.00,Thursday
24,8316875.307324994
36,4050000.0
72,2700000.0
1207,589606.758008379
1270,3677268.5493166153
2,2, 6, 2, 0,21,45.00,60.00,Thursday
24,8316179.608768912
36,4050000.0
72,2700000.0
1207,589606.758008379
1270,3676572.850760534
2,2, 6, 2, 0,22, 0.00,15.00,Thursday
24,4693249.537737823
36,427500.0
72,337500.0
1207,589606.758008379
1270,3676142.7797294445
2,2, 6, 2, 0,22,15.00,30.00,Thursday
24,4692810.426655971
36,427500.0
72,337500.0
1207,589606.758008379
1270,3675703.668647592
2,2, 6, 2, 0,22,30.00,45.00,Thursday
24,4692362.809086477
36,427500.0
72,337500.0
1207,589606.758008379
1270,3675256.051078098
2,2, 6, 2, 0,22,45.00,60.00,Thursday
24,4691907.087910338
36,427500.0
72,337500.0
1207,589606.758008379
1270,3674800.3299019593
2,2, 6, 2, 0,23, 0.00,15.00,Thursday
24,4692239.222432032
36,427500.0
72,337500.0
1207,589606.758008379
1270,3675132.464423654
2,2, 6, 2, 0,23,15.00,30.00,Thursday
24,4692566.425907863
36,427500.0
72,337500.0
1207,589606.758008379
1270,3675459.667899485
2,2, 6, 2, 0,23,30.00,45.00,Thursday
24,4692888.672169635
36,427500.0
72,337500.0
1207,589606.758008379
1270,3675781.914161257
2,2, 6, 2, 0,23,45.00,60.00,Thursday
24,4693205.89339186
36,427500.0
72,337500.0
1207,589606.758008379
1270,3676099.1353834816
2,2, 6, 2, 0,24, 0.00,15.00,Thursday
24,4693414.651711298
36,427500.0
72,337500.0
1207,589606.758008379
1270,3676307.893702919
2,2, 6, 2, 0,24,15.00,30.00,Thursday
24,4693621.082161947
36,427500.0
72,337500.0
1207,589606.758008379
1270,3676514.324153569
2,2, 6, 2, 0,24,30.00,45.00,Thursday
24,4693825.213051618
36,427500.0
72,337500.0
1207,589606.758008379
1270,3676718.45504324
2,2, 6, 2, 0,24,45.00,60.00,Thursday
24,4694027.10916002
36,427500.0
72,337500.0
1207,589606.758008379
1270,3676920.351151642
2,3, 6, 3, 0, 1, 0.00,15.00,Friday
24,4694009.988473694
36,427500.0
72,337500.0
1207,589606.758008379
1270,3676903.230465315
2,3, 6, 3, 0, 1,15.00,30.00,Friday
24,4695466.246127391
36,427500.0
72,337500.0
1207,591084.037822122
1270,3676882.20830527
2,3, 6, 3, 0, 1,30.00,45.00,Friday
24,5384832.646426326
36,427500.0
72,337500.0
1207,634183.1078487036
1270,4323149.538577622
2,3, 6, 3, 0, 1,45.00,60.00,Friday
24,6209384.208843698
36,427500.0
72,337500.0
1207,669227.4875234184
1270,5112656.72132028
2,3, 6, 3, 0, 2, 0.00,15.00,Friday
24,4698162.68328194
36,427500.0
72,337500.0
1207,589606.758008379
1270,3681055.9252735614
2,3, 6, 3, 0, 2,15.00,30.00,Friday
24,4693874.0587813435
36,427500.0
72,337500.0
1207,589606.758008379
1270,3676767.300772964
2,3, 6, 3, 0, 2,30.00,45.00,Friday
24,4693837.735239843
36,427500.0
72,337500.0
1207,589606.758008379
1270,3676730.977231465
2,3, 6, 3, 0, 2,45.00,60.00,Friday
24,4693797.672715069
36,427500.0
72,337500.0
1207,589606.758008379
1270,3676690.9147066907
2,3, 6, 3, 0, 3, 0.00,15.00,Friday
24,4692322.01840045
36,427500.0
72,337500.0
1207,589606.758008379
1270,3675215.260392071
2,3, 6, 3, 0, 3,15.00,30.00,Friday
24,5041470.544997483
36,427500.0
72,337500.0
1207,618032.4781756809
1270,3995938.0668218024
2,3, 6, 3, 0, 3,30.00,45.00,Friday
24,4689505.196013982
36,427500.0
72,337500.0
1207,589606.758008379
1270,3672398.4380056034
2,3, 6, 3, 0, 3,45.00,60.00,Friday
24,4688155.27847671
36,427500.0
72,337500.0
1207,589606.758008379
1270,3671048.5204683323
2,3, 6, 3, 0, 4, 0.00,15.00,Friday
24,4686053.696109053
36,427500.0
72,337500.0
1207,589606.758008379
1270,3668946.9381006737
2,3, 6, 3, 0, 4,15.00,30.00,Friday
24,4684052.645884854
36,427500.0
72,337500.0
1207,589606.758008379
1270,3666945.8878764757
2,3, 6, 3, 0, 4,30.00,45.00,Friday
24,4802558.826752433
36,427500.0
72,337500.0
1207,608453.1016102221
1270,3766605.72514221
2,3, 6, 3, 0, 4,45.00,60.00,Friday
24,4680325.355740472
36,427500.0
72,337500.0
1207,589606.758008379
1270,3663218.5977320937
2,3, 6, 3, 0, 5, 0.00,15.00,Friday
24,4683634.781416439
36,427500.0
72,337500.0
1207,594654.4045111648
1270,3661480.376905275
2,3, 6, 3, 0, 5,15.00,30.00,Friday
24,4676925.46206654
36,427500.0
72,337500.0
1207,589606.758008379
1270,3659818.7040581605
2,3, 6, 3, 0, 5,30.00,45.00,Friday
24,4675335.504023403
36,427500.0
72,337500.0
1207,589606.758008379
1270,3658228.746015024
2,3, 6, 3, 0, 5,45.00,60.00,Friday
24,4757466.291215476
36,427500.0
72,337500.0
1207,653785.074101557
1270,3676181.217113918
2,3, 6, 3, 0, 6, 0.00,15.00,Friday
24,4673016.1501109
36,427500.0
72,337500.0
1207,589606.758008379
1270,3655909.3921025223
2,3, 6, 3, 0, 6,15.00,30.00,Friday
24,4672106.709324392
36,427500.0
72,337500.0
1207,589606.758008379
1270,3654999.951316012
2,3, 6, 3, 0, 6,30.00,45.00,Friday
24,4671285.096193862
36,427500.0
72,337500.0
1207,589606.758008379
1270,3654178.3381854827
2,3, 6, 3, 0, 6,45.00,60.00,Friday
24,4670483.469105109
36,427500.0
72,337500.0
1207,589606.758008379
1270,3653376.7110967296
2,3, 6, 3, 0, 7, 0.00,15.00,Friday
24,4670761.429626709
36,427500.0
72,337500.0
1207,589606.758008379
1270,3653654.67161833
2,3, 6, 3, 0, 7,15.00,30.00,Friday
24,4671038.581353885
36,427500.0
72,337500.0
1207,589606.758008379
1270,3653931.823345506
2,3, 6, 3, 0, 7,30.00,45.00,Friday
24,4671314.838841894
36,427500.0
72,337500.0
1207,589606.758008379
1270,3654208.0808335147
2,3, 6, 3, 0, 7,45.00,60.00,Friday
24,4671590.1689399425
36,427500.0
72,337500.0
1207,589606.758008379
1270,3654483.4109315644
2,3, 6, 3, 0, 8, 0.00,15.00,Friday
24,4672482.170874823
36,427500.0
72,337500.0
1207,589606.758008379
1270,3655375.412866444
2,3, 6, 3, 0, 8,15.00,30.00,Friday
24,4673391.098510254